ITEM: TIMESTEP
16000
ITEM: NUMBER OF CELLS
26430
ITEM: BOX BOUNDS oo ao pp
-2.5 5
0 5
-0.0005 0.0005
ITEM: CELLS id proc f_avg_n f_avg_nrho f_avg_temp_tra f_avg_temp_rot f_avg_temp_vib f_avg_vel[1] f_avg_vel[2] f_avg_vel[3] f_avg_nrho_CO2 f_avg_nrho_O2 f_avg_nrho_C2 f_avg_nrho_CO f_avg_nrho_O f_avg_nrho_C 
74753 0 21.5467 2.05756e+20 301.405 295.93 298.715 5003.32 16.555 5.38661 2.05756e+20 0 0 0 0 0 
140289 0 22.1267 2.11294e+20 305.048 299.015 300.242 4999.31 35.0759 -0.273119 2.11294e+20 0 0 0 0 0 
205825 0 20.9567 2.00121e+20 299.683 303.605 302.954 4997.23 -1.48636 4.16035 2.00121e+20 0 0 0 0 0 
271361 0 20.85 1.99103e+20 304.47 304.267 298.98 4997.9 4.031 2.41806 1.99103e+20 0 0 0 0 0 
82945 0 23.0467 2.20079e+20 304.17 297.283 300.694 4999.21 40.5149 4.4149 2.20079e+20 0 0 0 0 0 
148481 0 22.9867 2.19506e+20 304.549 299.915 300.524 5001.91 48.1285 4.31441 2.19506e+20 0 0 0 0 0 
214017 0 20.58 1.96525e+20 300.209 302.946 302.625 4996.66 2.08631 -0.426416 1.96525e+20 0 0 0 0 0 
279553 0 20.96 2.00153e+20 304.888 304.327 299.945 4999.87 3.34033 3.49538 2.00153e+20 0 0 0 0 0 
91137 0 20.9333 1.99899e+20 297.387 304.798 298.986 5004.84 2.03008 -0.062014 1.99899e+20 0 0 0 0 0 
156673 0 20.7767 1.98403e+20 298.453 299.298 296.95 5002.78 8.6745 2.38319 1.98403e+20 0 0 0 0 0 
222209 0 20.9367 1.9993e+20 304.98 303.614 298.171 5000.36 -6.95894 -0.717618 1.9993e+20 0 0 0 0 0 
287745 0 20.97 2.00249e+20 303.329 302.11 296.892 4999.89 -5.30803 -3.25089 2.00249e+20 0 0 0 0 0 
99329 0 20.8133 1.98753e+20 297.466 307.017 298.416 5003.27 0.196863 3.04121 1.98753e+20 0 0 0 0 0 
164865 0 20.9667 2.00217e+20 300.9 303.092 298.748 5003.65 4.06423 0.926236 2.00217e+20 0 0 0 0 0 
230401 0 20.97 2.00249e+20 298.114 301.895 300.06 5001.45 -7.70091 -1.16984 2.00249e+20 0 0 0 0 0 
295937 0 20.63 1.97002e+20 304.515 302.235 298.764 4998.3 -7.10282 -0.116693 1.97002e+20 0 0 0 0 0 
75777 0 23.4067 2.23517e+20 299.256 299.718 298.495 4999.85 47.1374 0.285382 2.23517e+20 0 0 0 0 0 
141313 0 23.59 2.25268e+20 305.755 296.432 303.204 4996.96 53.8731 2.75395 2.25268e+20 0 0 0 0 0 
206849 0 20.6967 1.97639e+20 304.065 302.311 299.955 4998.85 3.75147 -0.388962 1.97639e+20 0 0 0 0 0 
272385 0 21.1633 2.02095e+20 303.446 303.701 299.205 4995.96 7.1675 4.13623 2.02095e+20 0 0 0 0 0 
83969 0 23.6567 2.25905e+20 299.291 297.307 299.542 5000.38 51.9924 2.31477 2.25905e+20 0 0 0 0 0 
149505 0 23.3567 2.2304e+20 301.078 294.739 300.917 5004.28 49.2043 -1.94075 2.2304e+20 0 0 0 0 0 
215041 0 20.7567 1.98212e+20 304.335 304.57 299.248 5000.67 7.41604 5.93444 1.98212e+20 0 0 0 0 0 
280577 0 20.7567 1.98212e+20 301.335 301.218 303.223 4995.8 11.6911 2.73682 1.98212e+20 0 0 0 0 0 
92161 0 20.6433 1.97129e+20 297.229 301.753 297.021 5008.05 1.4937 5.44753 1.97129e+20 0 0 0 0 0 
157697 0 20.8333 1.98944e+20 299.313 305.151 301.702 5004.08 1.08855 3.62398 1.98944e+20 0 0 0 0 0 
223233 0 21.0333 2.00854e+20 300.953 303.051 298.146 5001.16 -4.75274 -4.40152 2.00854e+20 0 0 0 0 0 
288769 0 20.77 1.98339e+20 302.671 300.012 300.648 5001.49 -6.99388 -1.39708 1.98339e+20 0 0 0 0 0 
100353 0 21.0233 2.00758e+20 304.82 300.045 297.042 5004.25 2.41656 -0.676725 2.00758e+20 0 0 0 0 0 
165889 0 20.7633 1.98275e+20 299.987 301.892 299.387 5004.91 0.568296 -1.12598 1.98275e+20 0 0 0 0 0 
231425 0 20.9467 2.00026e+20 301.335 300.909 300.214 5002.15 -1.96963 -4.84985 2.00026e+20 0 0 0 0 0 
296961 0 20.7567 1.98212e+20 303.302 302.983 298.847 5002.98 -2.0171 -1.20789 1.98212e+20 0 0 0 0 0 
76801 0 20.88 1.99389e+20 301.98 292.707 302.746 4999.27 -0.17439 -1.47508 1.99389e+20 0 0 0 0 0 
142337 0 20.8767 1.99357e+20 299.694 295.945 300.049 5003.35 1.08938 -4.77795 1.99357e+20 0 0 0 0 0 
207873 0 20.9367 1.9993e+20 297.383 294.313 300.839 4998.92 -4.08551 -2.65429 1.9993e+20 0 0 0 0 0 
273409 0 21.24 2.02827e+20 297.503 297.558 298.384 5001.14 -1.01791 3.31045 2.02827e+20 0 0 0 0 0 
84993 0 20.61 1.96811e+20 303.792 294.205 298.602 5001.36 -1.82728 -2.61693 1.96811e+20 0 0 0 0 0 
150529 0 21.0767 2.01267e+20 301.72 293.499 303.733 5001.62 2.3777 -3.44376 2.01267e+20 0 0 0 0 0 
216065 0 20.5767 1.96493e+20 294.854 299.172 299.221 5002.13 -3.93147 -0.485146 1.96493e+20 0 0 0 0 0 
281601 0 21.0633 2.0114e+20 295.591 297.252 299.264 4999.54 -1.81031 -2.67349 2.0114e+20 0 0 0 0 0 
93185 0 20.9967 2.00503e+20 300.785 297.75 297.207 4998.17 -2.38327 1.66667 2.00503e+20 0 0 0 0 0 
158721 0 20.91 1.99676e+20 298.808 302.59 299.131 5001.67 2.42998 1.14484 1.99676e+20 0 0 0 0 0 
224257 0 20.8633 1.9923e+20 299.255 302.343 297.28 5001.6 -1.34262 -2.45783 1.9923e+20 0 0 0 0 0 
289793 0 20.9933 2.00472e+20 301.96 297.993 298.78 5003.37 -1.53853 -2.32207 2.00472e+20 0 0 0 0 0 
101377 0 21.14 2.01872e+20 303.712 293.867 296.102 5001.82 -1.67581 6.55113 2.01872e+20 0 0 0 0 0 
166913 0 20.8533 1.99135e+20 301.101 296.58 297.465 5000.03 2.02772 -4.08871 1.99135e+20 0 0 0 0 0 
232449 0 20.5767 1.96493e+20 299.48 300.717 297.237 5006.67 0.238478 0.965695 1.96493e+20 0 0 0 0 0 
297985 0 20.7833 1.98466e+20 300.07 303.763 298.771 5001.01 -2.61937 0.650023 1.98466e+20 0 0 0 0 0 
77825 0 20.57 1.96429e+20 298.614 301.901 296.253 5002.31 -0.876991 -3.41049 1.96429e+20 0 0 0 0 0 
143361 0 20.48 1.9557e+20 299.19 296.058 297.312 5000.16 -1.07465 -2.94827 1.9557e+20 0 0 0 0 0 
208897 0 21.1533 2.01999e+20 299.69 301.145 296.742 5001.16 -5.67465 -0.0777289 2.01999e+20 0 0 0 0 0 
274433 0 20.5967 1.96684e+20 295.286 297.877 298.796 5000.24 -3.49396 2.52415 1.96684e+20 0 0 0 0 0 
86017 0 20.7133 1.97798e+20 300.056 300.144 303.292 4998.62 -1.20659 -3.68614 1.97798e+20 0 0 0 0 0 
151553 0 20.76 1.98243e+20 295.225 301.863 295.221 4997.43 -8.17562 -1.85156 1.98243e+20 0 0 0 0 0 
217089 0 21.0133 2.00663e+20 302.778 294.278 297.93 4998.13 2.44894 -2.52951 2.00663e+20 0 0 0 0 0 
282625 0 20.66 1.97288e+20 298.022 296.04 296.54 5000.27 -0.243501 1.14014 1.97288e+20 0 0 0 0 0 
94209 0 21.0267 2.0079e+20 301.591 300.113 297.821 5004.17 -0.197939 5.77297 2.0079e+20 0 0 0 0 0 
159745 0 21.0267 2.0079e+20 300.485 300.393 298.138 5000.76 2.20395 0.941986 2.0079e+20 0 0 0 0 0 
225281 0 20.5667 1.96397e+20 295.82 298.976 298.09 5003.53 -0.734533 -1.70943 1.96397e+20 0 0 0 0 0 
290817 0 20.54 1.96143e+20 299.028 300.656 296.356 5005.26 -3.14746 2.03566 1.96143e+20 0 0 0 0 0 
102401 0 20.98 2.00344e+20 297.931 305.309 296.825 5004.99 -0.894062 -0.500354 2.00344e+20 0 0 0 0 0 
167937 0 20.9333 1.99899e+20 298.391 303.478 297.933 5001.05 0.179217 2.60785 1.99899e+20 0 0 0 0 0 
233473 0 20.85 1.99103e+20 295.781 304.394 298.984 4997.81 -1.36929 1.87625 1.99103e+20 0 0 0 0 0 
299009 0 20.5433 1.96174e+20 303.064 301.016 296.328 5006.14 -0.255601 0.536058 1.96174e+20 0 0 0 0 0 
74757 0 19.86 1.89649e+20 302.732 300.567 297.773 5000.53 -2.38156 3.15446 1.89649e+20 0 0 0 0 0 
140293 0 19.4433 1.8567e+20 298.715 289.97 300.111 5003.57 -1.48894 3.63124 1.8567e+20 0 0 0 0 0 
205829 0 20.5167 1.9592e+20 296.714 301.734 297.074 5004.47 -2.82543 1.83198 1.9592e+20 0 0 0 0 0 
271365 0 20.4967 1.95729e+20 298.84 295.814 301.299 5003.02 -0.0962196 3.51179 1.95729e+20 0 0 0 0 0 
82949 0 19.78 1.88885e+20 302.937 301.993 295.063 5004.1 -2.17495 3.48337 1.88885e+20 0 0 0 0 0 
148485 0 19.46 1.85829e+20 305.975 292.262 299.411 5002.77 1.64041 3.92792 1.85829e+20 0 0 0 0 0 
214021 0 20.3433 1.94265e+20 306.036 297.473 300.302 5005.3 -0.66453 -0.198448 1.94265e+20 0 0 0 0 0 
279557 0 20.4467 1.95251e+20 299.867 296.135 298.561 5007.36 -1.36369 4.866 1.95251e+20 0 0 0 0 0 
91141 0 21.1133 2.01617e+20 301.922 305.812 298.852 4997.31 3.49081 -2.66792 2.01617e+20 0 0 0 0 0 
156677 0 20.7767 1.98403e+20 296.953 298.17 299.141 4998.27 5.40262 -3.63327 1.98403e+20 0 0 0 0 0 
222213 0 20.5567 1.96302e+20 301.353 297.778 302.378 5000.78 7.19724 0.490536 1.96302e+20 0 0 0 0 0 
287749 0 20.04 1.91368e+20 302.487 304.583 300.463 5001.61 5.00867 -4.4058 1.91368e+20 0 0 0 0 0 
99333 0 20.4833 1.95601e+20 299.755 304.696 301.352 4995.14 5.61619 -4.84015 1.95601e+20 0 0 0 0 0 
164869 0 20.8 1.98625e+20 297.282 303.694 301.071 4994.3 5.25766 -4.60812 1.98625e+20 0 0 0 0 0 
230405 0 20.63 1.97002e+20 298.653 296.81 300.484 4999.72 5.84654 -0.499294 1.97002e+20 0 0 0 0 0 
295941 0 20.4067 1.94869e+20 305.414 305.141 299.219 5003.01 10.0948 -4.6603 1.94869e+20 0 0 0 0 0 
75781 0 19.2933 1.84238e+20 301.705 303.296 296.742 5001.16 0.525692 4.22444 1.84238e+20 0 0 0 0 0 
141317 0 19.4433 1.8567e+20 303.388 297.982 297.616 5007.35 0.722834 0.750373 1.8567e+20 0 0 0 0 0 
206853 0 20.43 1.95092e+20 300.536 296.277 301.967 5000.54 -1.18526 0.357723 1.95092e+20 0 0 0 0 0 
272389 0 20.5667 1.96397e+20 304.68 296.264 298.66 5004.73 -6.68562 5.95031 1.96397e+20 0 0 0 0 0 
83973 0 19.1567 1.82933e+20 306.452 294.418 299.993 5000.42 1.20273 2.59089 1.82933e+20 0 0 0 0 0 
149509 0 19.92 1.90222e+20 305.131 302.553 298.058 5000.41 -2.96202 -0.713401 1.90222e+20 0 0 0 0 0 
215045 0 20.1833 1.92737e+20 301.156 298.554 298.759 5001.26 -1.96194 1.76821 1.92737e+20 0 0 0 0 0 
280581 0 20.2533 1.93405e+20 297.81 298.033 300.641 5002.84 -3.75014 5.25211 1.93405e+20 0 0 0 0 0 
92165 0 20.6933 1.97607e+20 296.935 300.092 300.872 4998.95 5.71713 -4.55167 1.97607e+20 0 0 0 0 0 
157701 0 20.4667 1.95442e+20 294.301 304.827 301.981 4998.37 5.19463 -7.52096 1.95442e+20 0 0 0 0 0 
223237 0 20.2333 1.93214e+20 302.295 302.502 300.114 4999.39 5.39613 -4.06677 1.93214e+20 0 0 0 0 0 
288773 0 20.3467 1.94296e+20 302.282 300.733 298.555 5002.5 10.0191 -1.9484 1.94296e+20 0 0 0 0 0 
100357 0 20.6433 1.97129e+20 297.725 297.751 299.55 4994.57 3.36788 -3.57525 1.97129e+20 0 0 0 0 0 
165893 0 20.42 1.94997e+20 294.961 307.787 303.579 4999.43 12.2068 -5.92028 1.94997e+20 0 0 0 0 0 
231429 0 20.2133 1.93023e+20 298.361 307.205 299.886 5001.58 3.17258 -8.34109 1.93023e+20 0 0 0 0 0 
296965 0 20.2367 1.93246e+20 302.38 301.998 297.644 5000.52 5.77433 -0.479331 1.93246e+20 0 0 0 0 0 
76805 0 20.39 1.9471e+20 297.892 298.574 299.83 5002.88 5.05599 -4.27043 1.9471e+20 0 0 0 0 0 
142341 0 20.25 1.93373e+20 302.563 301.986 299.589 5005.86 -2.72324 -0.3551 1.93373e+20 0 0 0 0 0 
207877 0 20.2733 1.93596e+20 300.638 304.999 298.84 5000.27 -2.71604 0.0216365 1.93596e+20 0 0 0 0 0 
273413 0 20.1967 1.92864e+20 299.949 301.183 298.226 5001.69 0.292716 2.72015 1.92864e+20 0 0 0 0 0 
84997 0 20.1333 1.92259e+20 299.965 301.756 302.024 5004.59 -0.85586 -0.90831 1.92259e+20 0 0 0 0 0 
150533 0 20.4767 1.95538e+20 299.94 301.37 299.979 5001.91 1.49519 -1.57255 1.95538e+20 0 0 0 0 0 
216069 0 20.0367 1.91336e+20 298.155 302.645 298.629 5003.01 -3.68991 1.64136 1.91336e+20 0 0 0 0 0 
281605 0 20.1033 1.91973e+20 300.007 304.191 298.783 4997.37 -1.00987 0.542456 1.91973e+20 0 0 0 0 0 
93189 0 20.43 1.95092e+20 296.048 295.679 300.971 5002.95 -1.74503 3.17017 1.95092e+20 0 0 0 0 0 
158725 0 20.3333 1.94169e+20 299.389 296.269 295.146 5002.4 -2.20902 5.27349 1.94169e+20 0 0 0 0 0 
224261 0 20.13 1.92227e+20 299.221 295.933 296.414 5004.11 0.401904 1.96405 1.92227e+20 0 0 0 0 0 
289797 0 20.39 1.9471e+20 295.869 294.987 297.517 5002.39 -0.240434 -4.49398 1.9471e+20 0 0 0 0 0 
101381 0 20.23 1.93182e+20 297.51 294.302 298.697 5002.17 -1.23176 2.85232 1.93182e+20 0 0 0 0 0 
166917 0 20.24 1.93278e+20 298.902 296.57 297.903 5004.51 -4.62607 4.47127 1.93278e+20 0 0 0 0 0 
232453 0 20.1367 1.92291e+20 298.123 297.639 294.459 5001.83 -0.254225 0.0526263 1.92291e+20 0 0 0 0 0 
297989 0 20.07 1.91654e+20 297.72 297.618 298.139 5004.73 0.702913 -3.65863 1.91654e+20 0 0 0 0 0 
77829 0 20.33 1.94137e+20 298.809 299.939 299.98 5002.98 -4.92373 -1.37654 1.94137e+20 0 0 0 0 0 
143365 0 20.4733 1.95506e+20 302.71 299.444 301.077 5010.11 -0.15158 0.861906 1.95506e+20 0 0 0 0 0 
208901 0 20.1367 1.92291e+20 302.27 300.536 297.711 5001.94 -1.87583 4.445 1.92291e+20 0 0 0 0 0 
274437 0 19.8433 1.8949e+20 304.945 302.206 299.229 5003.31 3.25366 -3.26294 1.8949e+20 0 0 0 0 0 
86021 0 20.3067 1.93914e+20 299.854 297.626 299.857 5002.02 0.00822034 -2.12653 1.93914e+20 0 0 0 0 0 
151557 0 20.45 1.95283e+20 303.56 295.16 300.158 5007.33 -1.2068 -0.583562 1.95283e+20 0 0 0 0 0 
217093 0 20.2 1.92896e+20 300.708 297.854 299.224 4998.42 -1.18906 -0.734236 1.92896e+20 0 0 0 0 0 
282629 0 20.2833 1.93692e+20 302.223 304.321 296.516 5004.5 -1.16807 1.7998 1.93692e+20 0 0 0 0 0 
94213 0 20.3833 1.94646e+20 296.723 293.416 295.664 5000.14 0.230999 3.05109 1.94646e+20 0 0 0 0 0 
159749 0 19.96 1.90604e+20 296.956 293.348 299.669 5002.88 -5.52242 6.31481 1.90604e+20 0 0 0 0 0 
225285 0 20.1867 1.92768e+20 295.569 295.725 297.133 5004.21 -0.0635525 -5.10027 1.92768e+20 0 0 0 0 0 
290821 0 20.0533 1.91495e+20 301.038 298.963 298.657 5002.17 2.64384 1.44612 1.91495e+20 0 0 0 0 0 
102405 0 20.2533 1.93405e+20 300.031 297.71 296.997 5001.57 -2.97835 -0.71672 1.93405e+20 0 0 0 0 0 
167941 0 19.8967 1.89999e+20 297.539 290.871 297.271 5002.45 -0.59275 2.90671 1.89999e+20 0 0 0 0 0 
233477 0 20.2 1.92896e+20 298.61 292.743 294.122 5005.6 -1.64688 -3.16992 1.92896e+20 0 0 0 0 0 
299013 0 19.9667 1.90668e+20 297.96 290.764 296.332 5004.84 0.992825 -1.86278 1.90668e+20 0 0 0 0 0 
74761 0 19.4367 1.85606e+20 299.942 289.342 299.903 4999.95 -3.77886 9.74636 1.85606e+20 0 0 0 0 0 
140297 0 19.4433 1.8567e+20 496.899 334.203 302.136 4985.33 -9.31205 2.63766 1.8567e+20 0 0 0 0 0 
205833 0 19.06 1.8201e+20 312.597 305.265 302.104 5004.69 -0.423284 -1.11215 1.8201e+20 0 0 0 0 0 
271369 0 19.19 1.83251e+20 457.022 316.825 305.577 4984.7 -2.34304 -0.0625577 1.83251e+20 0 0 0 0 0 
82953 0 21.22 2.02636e+20 4917.09 1514.45 558.766 4510.48 1.93285 0.726794 2.02636e+20 0 0 0 0 0 
148489 0 42.1333 4.02344e+20 14907.6 7064.76 3377.46 2299.61 -10.8952 20.8416 4.02344e+20 0 0 0 0 0 
214025 0 21.4133 2.04482e+20 5133.33 1440.08 538.828 4500.66 -15.2156 -8.67522 2.04482e+20 0 0 0 0 0 
279561 0 41.5 3.96296e+20 14890 7099.98 3448.31 2334.22 -6.77581 27.5583 3.96296e+20 0 0 0 0 0 
91145 0 19.2567 1.83888e+20 302.468 300.746 302.408 4999.49 1.8117 -0.699184 1.83888e+20 0 0 0 0 0 
156681 0 19.2167 1.83506e+20 444.199 346.492 317.347 4988.62 -3.99524 2.3282 1.83506e+20 0 0 0 0 0 
222217 0 20.2433 1.9331e+20 303.368 300.668 297.137 4997.56 1.70479 -1.10572 1.9331e+20 0 0 0 0 0 
287753 0 20.08 1.9175e+20 436.855 366.209 308.966 4986.89 -0.92566 -3.87141 1.9175e+20 0 0 0 0 0 
99337 0 21.51 2.05405e+20 5517.58 1484.38 605.885 4458.32 -5.07733 2.68052 2.05405e+20 0 0 0 0 0 
164873 0 42.8167 4.08869e+20 15142.1 7206.39 3651.31 2258.02 -27.627 25.8636 4.08869e+20 0 0 0 0 0 
230409 0 22.4267 2.14159e+20 5285.09 1588.97 573.209 4472.6 -16.4031 -1.50889 2.14159e+20 0 0 0 0 0 
295945 0 42.9067 4.09728e+20 14849.7 7224.29 3558.98 2330.99 -11.4587 -5.98486 4.09728e+20 0 0 0 0 0 
75785 0 79.4767 7.58946e+20 13674.8 9351.86 6870.13 1214.95 -9.49547 30.3672 7.58946e+20 0 0 0 0 0 
141321 0 109.42 1.04488e+21 12897.8 9974.8 8549.54 851.25 19.4532 -15.2395 1.04488e+21 0 0 0 0 0 
206857 0 79.9733 7.63689e+20 13920.9 9451.51 7113.16 1163.94 -12.952 4.78767 7.63689e+20 0 0 0 0 0 
272393 0 111.08 1.06074e+21 12959.9 10096 8741.75 809.483 26.4652 -11.0347 1.06074e+21 0 0 0 0 0 
83977 0 138.407 1.32169e+21 12109 10490.9 9122.58 622.532 21.5275 -1.9841 1.32169e+21 0 0 0 0 0 
149513 0 169.8 1.62147e+21 11457.1 10749.9 9688.64 466.816 6.26806 -0.781637 1.62147e+21 0 0 0 0 0 
215049 0 140.87 1.34521e+21 12235.3 10502.2 9354.02 585.083 16.6303 0.663 1.34521e+21 0 0 0 0 0 
280585 0 170.017 1.62354e+21 11536.6 10720.4 9783.65 460.184 17.0307 13.8276 1.62354e+21 0 0 0 0 0 
92169 0 80.6367 7.70023e+20 14103.3 9486.98 7285.61 1136.94 22.6862 -3.68582 7.70023e+20 0 0 0 0 0 
157705 0 111.55 1.06522e+21 12941.4 10104.1 8766.96 766.181 44.534 -15.332 1.06522e+21 0 0 0 0 0 
223241 0 78.9633 7.54044e+20 14078.1 9536.18 7075.27 1220.45 34.8836 -16.7104 7.54044e+20 0 0 0 0 0 
288777 0 112.77 1.07687e+21 12944.3 10001.2 8688.15 826.937 33.8951 -11.1947 1.07687e+21 0 0 0 0 0 
100361 0 139.37 1.33089e+21 12320 10484.5 9247.57 579.882 16.7824 19.5656 1.33089e+21 0 0 0 0 0 
165897 0 168.593 1.60995e+21 11551.6 10770.2 9751.29 462.1 17.9395 29.2419 1.60995e+21 0 0 0 0 0 
231433 0 143.963 1.37475e+21 11977.2 10530.9 9197.71 584.901 25.6776 19.4903 1.37475e+21 0 0 0 0 0 
296969 0 170.847 1.63147e+21 11493.8 10613.3 9714.11 486.184 18.305 22.8015 1.63147e+21 0 0 0 0 0 
76809 0 20.11 1.92036e+20 313.093 313.256 298.406 5003.46 3.3508 -3.7674 1.92036e+20 0 0 0 0 0 
142345 0 20.3567 1.94392e+20 589.748 365.048 309.154 4978.06 -3.99185 3.70229 1.94392e+20 0 0 0 0 0 
207881 0 19.5533 1.86721e+20 320.312 304.029 300.815 5001.76 -4.86754 -5.53037 1.86721e+20 0 0 0 0 0 
273417 0 19.7467 1.88567e+20 746.299 454.473 310.622 4958.27 -2.03379 -0.868782 1.88567e+20 0 0 0 0 0 
85001 0 22.9733 2.19379e+20 5927.48 1911.94 697.517 4398.57 -40.5111 -13.0342 2.19379e+20 0 0 0 0 0 
150537 0 42.5467 4.06291e+20 15178.8 7245.5 3611.27 2318.6 -0.437994 -16.5413 4.06291e+20 0 0 0 0 0 
216073 0 23.1167 2.20748e+20 7049.98 2200.44 817.521 4260.98 -24.283 -1.92987 2.20748e+20 0 0 0 0 0 
281609 0 41.8667 3.99797e+20 15307.8 7315.31 3750.92 2275.52 9.22758 -50.051 3.99797e+20 0 0 0 0 0 
93193 0 19.49 1.86116e+20 343.936 300.36 294.994 5000.4 -6.55658 -1.25476 1.86116e+20 0 0 0 0 0 
158729 0 19.35 1.84779e+20 671.615 368.014 303.87 4965.13 2.6962 -5.03375 1.84779e+20 0 0 0 0 0 
224265 0 19.2767 1.84079e+20 377.583 300.14 298.483 4994.06 -2.08077 5.16795 1.84079e+20 0 0 0 0 0 
289801 0 20.15 1.92418e+20 527.671 352.412 303.298 4978.54 -6.61736 1.46913 1.92418e+20 0 0 0 0 0 
101385 0 22.9767 2.19411e+20 7279.58 2253.49 784.056 4230.48 7.6708 9.36545 2.19411e+20 0 0 0 0 0 
166921 0 42.27 4.03649e+20 15600.4 7139.9 4277.63 2191.2 34.4573 9.08125 4.03649e+20 0 0 0 0 0 
232457 0 22.96 2.19252e+20 6986.97 2082.22 789.406 4252.41 25.2803 21.4528 2.19252e+20 0 0 0 0 0 
297993 0 41.88 3.99925e+20 15468.5 7230.2 3957.36 2291.78 60.3558 5.01634 3.99925e+20 0 0 0 0 0 
77833 0 79.0733 7.55095e+20 14290 9545.5 7079.6 1214.87 49.8193 -27.5112 7.55095e+20 0 0 0 0 0 
143369 0 112.763 1.07681e+21 13042.8 10044.1 8638.49 807.072 50.8449 -27.6592 1.07681e+21 0 0 0 0 0 
208905 0 77.85 7.43413e+20 14256 9695.76 7119.19 1199.77 58.1491 -11.9068 7.43413e+20 0 0 0 0 0 
274441 0 112.683 1.07605e+21 12985.8 10031.3 8638.9 789.322 51.8129 2.04341 1.07605e+21 0 0 0 0 0 
86025 0 145.333 1.38783e+21 11970.3 10386.2 9072.75 598.301 20.5543 -0.0946803 1.38783e+21 0 0 0 0 0 
151561 0 174.227 1.66374e+21 11280 10422.8 9632.82 472.794 30.9615 -3.30814 1.66374e+21 0 0 0 0 0 
217097 0 149.543 1.42803e+21 11991.4 10461.3 9162.24 562.278 33.6383 3.99707 1.42803e+21 0 0 0 0 0 
282633 0 174.03 1.66186e+21 11259.3 10567.8 9652.16 456.059 40.1911 -9.11642 1.66186e+21 0 0 0 0 0 
94217 0 77.0667 7.35932e+20 14185.3 9418.81 7262.85 1168.71 52.7973 9.02411 7.35932e+20 0 0 0 0 0 
159753 0 112.04 1.0699e+21 12890.2 9921.91 8544.26 769.686 57.1124 -11.9926 1.0699e+21 0 0 0 0 0 
225289 0 77.34 7.38543e+20 14288.8 9371.65 6957.98 1203.43 57.7121 13.8516 7.38543e+20 0 0 0 0 0 
290825 0 113.243 1.08139e+21 12919.2 9949.54 8427.46 788.75 72.6821 13.4342 1.08139e+21 0 0 0 0 0 
102409 0 144.713 1.38191e+21 12040.5 10565.4 9127.68 557.803 54.3082 3.37049 1.38191e+21 0 0 0 0 0 
167945 0 175.227 1.67329e+21 11284.9 10783.3 9864.64 428.797 50.564 -9.61224 1.67329e+21 0 0 0 0 0 
233481 0 151.213 1.44398e+21 11749 10387.3 9123.24 538.412 70.1403 19.9808 1.44398e+21 0 0 0 0 0 
299017 0 176.247 1.68303e+21 11337.3 10569.2 9914.3 422.099 65.348 -14.5556 1.68303e+21 0 0 0 0 0 
74785 0 20.52 1.95952e+20 299.097 300.802 298.376 5002.17 2.46174 0.720587 1.95952e+20 0 0 0 0 0 
140321 0 20.38 1.94615e+20 298.309 301.165 299.382 4998.51 -0.773614 -2.22105 1.94615e+20 0 0 0 0 0 
205857 0 20.6433 1.97129e+20 298.146 301.697 297.987 4999.18 2.18653 2.307 1.97129e+20 0 0 0 0 0 
271393 0 21.17 2.02159e+20 298.276 297.799 297.475 4999.15 -1.94423 -0.916125 2.02159e+20 0 0 0 0 0 
82977 0 20.46 1.95379e+20 297.833 299.762 299.378 4999.75 -0.867736 2.23577 1.95379e+20 0 0 0 0 0 
148513 0 20.2033 1.92928e+20 300.301 298.975 300.013 4999.77 2.81731 -3.80336 1.92928e+20 0 0 0 0 0 
214049 0 20.6967 1.97639e+20 302.754 297.412 293.956 4998.51 3.68944 -0.864277 1.97639e+20 0 0 0 0 0 
279585 0 20.8267 1.9888e+20 299.718 298.105 295.809 4997.42 0.0452889 -2.06428 1.9888e+20 0 0 0 0 0 
91169 0 20.81 1.98721e+20 300.658 296.482 297.797 4998.11 -3.93878 -3.55729 1.98721e+20 0 0 0 0 0 
156705 0 20.31 1.93946e+20 300.81 300.102 295.411 4997.39 -4.40228 -3.78755 1.93946e+20 0 0 0 0 0 
222241 0 20.3767 1.94583e+20 304.697 299.523 298.762 5002.07 -0.403853 -4.35505 1.94583e+20 0 0 0 0 0 
287777 0 20.7167 1.9783e+20 304.9 299.264 298.914 5000.44 -0.783662 -2.09389 1.9783e+20 0 0 0 0 0 
99361 0 20.7733 1.98371e+20 298.254 304.378 299.096 4998.36 -8.5917 -6.46119 1.98371e+20 0 0 0 0 0 
164897 0 20.5933 1.96652e+20 302.199 297.574 295.397 4996.91 -3.11456 -0.010163 1.96652e+20 0 0 0 0 0 
230433 0 20.5233 1.95983e+20 300.601 292.192 297.284 4999.08 -0.567525 -3.49009 1.95983e+20 0 0 0 0 0 
295969 0 20.4267 1.9506e+20 303.859 299.086 297.842 5001.45 -2.90105 -2.20575 1.9506e+20 0 0 0 0 0 
75809 0 20.6033 1.96747e+20 298.876 295.387 297.905 5000.97 -6.26169 -1.1069 1.96747e+20 0 0 0 0 0 
141345 0 20.19 1.928e+20 297.064 300.546 299.024 4996.39 2.1148 -0.414701 1.928e+20 0 0 0 0 0 
206881 0 20.9533 2.0009e+20 303.298 294.159 297.844 5002.3 1.44928 1.27647 2.0009e+20 0 0 0 0 0 
272417 0 20.8033 1.98657e+20 302.783 296.585 297.153 4994.29 2.51234 -0.91096 1.98657e+20 0 0 0 0 0 
84001 0 20.2833 1.93692e+20 292.713 298.183 298.16 5001.15 -0.182777 -3.54937 1.93692e+20 0 0 0 0 0 
149537 0 20.3267 1.94105e+20 296.663 294.379 300.685 4998.02 -3.59859 -1.28149 1.94105e+20 0 0 0 0 0 
215073 0 20.7633 1.98275e+20 303.253 300.915 296.74 5003.25 0.0256591 2.59642 1.98275e+20 0 0 0 0 0 
280609 0 20.4467 1.95251e+20 300.265 293.883 296.929 4993.55 -0.7768 -1.52193 1.95251e+20 0 0 0 0 0 
92193 0 20.42 1.94997e+20 300.776 297.576 298.544 4998.87 -1.69559 -4.57767 1.94997e+20 0 0 0 0 0 
157729 0 20.9667 2.00217e+20 302.3 297.566 296.528 5000.78 -3.32455 -3.28329 2.00217e+20 0 0 0 0 0 
223265 0 20.4233 1.95028e+20 305.509 296.223 298.06 4998.24 -4.44941 0.419788 1.95028e+20 0 0 0 0 0 
288801 0 20.3567 1.94392e+20 301.643 298.593 296.425 4998.94 -1.71541 -4.33095 1.94392e+20 0 0 0 0 0 
100385 0 20.1733 1.92641e+20 304.43 298.066 298.323 4996.33 -7.12944 -0.345773 1.92641e+20 0 0 0 0 0 
165921 0 20.87 1.99294e+20 302.584 300.23 297.232 5003.09 -2.64362 -1.06775 1.99294e+20 0 0 0 0 0 
231457 0 20.28 1.9366e+20 301.225 301.546 298.884 4996.3 -2.27689 -4.06742 1.9366e+20 0 0 0 0 0 
296993 0 20.2067 1.92959e+20 300.427 293.401 297.841 5001.4 -1.28229 -3.62978 1.92959e+20 0 0 0 0 0 
76833 0 20.5233 1.95983e+20 297.661 306.604 299.482 4997.77 -5.5722 -2.03571 1.95983e+20 0 0 0 0 0 
142369 0 20.32 1.94042e+20 296.523 300.545 300.019 4999.64 -0.583226 -1.78413 1.94042e+20 0 0 0 0 0 
207905 0 20.79 1.9853e+20 302.742 302.94 296.935 4997.7 -3.40453 6.82355 1.9853e+20 0 0 0 0 0 
273441 0 20.53 1.96047e+20 300.736 304.174 297.378 5006.15 -3.06615 4.02977 1.96047e+20 0 0 0 0 0 
85025 0 20.2933 1.93787e+20 301.726 300.442 297.919 4997.51 2.1444 0.387812 1.93787e+20 0 0 0 0 0 
150561 0 20.65 1.97193e+20 298.201 304.514 298.909 4998.8 3.413 -1.71061 1.97193e+20 0 0 0 0 0 
216097 0 20.26 1.93469e+20 301.201 303.268 295.279 4999.18 -3.42961 5.06812 1.93469e+20 0 0 0 0 0 
281633 0 20.9233 1.99803e+20 300.851 300.203 295.804 5000.25 -4.63005 7.80216 1.99803e+20 0 0 0 0 0 
93217 0 20.6133 1.96843e+20 303.319 297.596 297.346 5001.03 3.72526 4.33725 1.96843e+20 0 0 0 0 0 
158753 0 20.5867 1.96588e+20 306.263 299.903 296.705 5003.05 2.6551 4.50342 1.96588e+20 0 0 0 0 0 
224289 0 20.7567 1.98212e+20 296.843 298.307 296.607 5002.68 1.98348 2.72147 1.98212e+20 0 0 0 0 0 
289825 0 20.66 1.97288e+20 292.184 301.585 298.123 5004.39 1.47778 4.80888 1.97288e+20 0 0 0 0 0 
101409 0 20.6067 1.96779e+20 298.728 298.27 302.086 5000.25 1.40812 5.94354 1.96779e+20 0 0 0 0 0 
166945 0 20.5533 1.9627e+20 302.816 300.805 298.338 5001.52 0.992194 1.35925 1.9627e+20 0 0 0 0 0 
232481 0 20.65 1.97193e+20 298.845 299.719 297.361 5001.98 -1.46019 2.87264 1.97193e+20 0 0 0 0 0 
298017 0 20.6167 1.96875e+20 298.069 304.005 299.522 5002.31 -3.08299 6.67872 1.96875e+20 0 0 0 0 0 
77857 0 20.42 1.94997e+20 297.031 303.724 301.785 4997.86 2.56736 -1.35147 1.94997e+20 0 0 0 0 0 
143393 0 20.6533 1.97225e+20 299.679 302.489 296.148 5000.31 3.86507 0.330484 1.97225e+20 0 0 0 0 0 
208929 0 20.0933 1.91877e+20 299.818 302.927 297.32 4999.03 -3.66068 4.48041 1.91877e+20 0 0 0 0 0 
274465 0 20.3667 1.94487e+20 303.848 301.04 295.681 5000.96 0.27688 2.54642 1.94487e+20 0 0 0 0 0 
86049 0 20.4433 1.95219e+20 296.133 304.129 299.367 4998.33 -2.13976 -3.843 1.95219e+20 0 0 0 0 0 
151585 0 20.5233 1.95983e+20 299.347 303.149 297.812 5000.04 3.0611 2.09051 1.95983e+20 0 0 0 0 0 
217121 0 20.74 1.98052e+20 300.629 297.896 296.813 4997.54 -3.72079 4.95566 1.98052e+20 0 0 0 0 0 
282657 0 19.9267 1.90286e+20 296.199 304.804 297.069 4997.46 -2.72225 3.22058 1.90286e+20 0 0 0 0 0 
94241 0 20.41 1.94901e+20 302.67 290.379 297.677 5006.58 2.87261 6.46801 1.94901e+20 0 0 0 0 0 
159777 0 20.3867 1.94678e+20 299.999 298.956 301.552 5002.31 3.04543 3.11079 1.94678e+20 0 0 0 0 0 
225313 0 20.5167 1.9592e+20 298.941 300.545 297.135 5004 0.118857 3.02021 1.9592e+20 0 0 0 0 0 
290849 0 20.6333 1.97034e+20 299.701 299.079 297.829 5000.47 -1.62486 0.184384 1.97034e+20 0 0 0 0 0 
102433 0 20.5233 1.95983e+20 297.91 297.291 299.786 5001.41 6.69219 3.53946 1.95983e+20 0 0 0 0 0 
167969 0 20.6133 1.96843e+20 300.191 299.037 301.172 5006.6 -3.25731 7.26476 1.96843e+20 0 0 0 0 0 
233505 0 20.6533 1.97225e+20 300.139 304.342 299.98 5003.98 -1.83661 7.75018 1.97225e+20 0 0 0 0 0 
299041 0 20.3067 1.93914e+20 302.79 297.999 298.047 5000.92 -3.61545 1.50567 1.93914e+20 0 0 0 0 0 
74789 0 20.26 1.93469e+20 294.338 296.438 298.579 5002.69 -3.23445 0.658926 1.93469e+20 0 0 0 0 0 
140325 0 19.6367 1.87516e+20 295.115 298.286 297.537 5006.81 -3.09638 -0.66028 1.87516e+20 0 0 0 0 0 
205861 0 20.24 1.93278e+20 301.964 302.265 297.647 4999.52 -1.27493 1.94125 1.93278e+20 0 0 0 0 0 
271397 0 20.28 1.9366e+20 300.952 300.278 297.82 4999.36 -1.72695 -0.112913 1.9366e+20 0 0 0 0 0 
82981 0 19.8967 1.89999e+20 291.888 299.426 302.023 5004.64 -3.39774 -0.709188 1.89999e+20 0 0 0 0 0 
148517 0 19.8 1.89076e+20 295.199 303.39 299.961 5003.17 -3.55298 2.93497 1.89076e+20 0 0 0 0 0 
214053 0 20.08 1.9175e+20 298.619 301.473 300.177 4999.3 -2.32612 -1.20163 1.9175e+20 0 0 0 0 0 
279589 0 20.42 1.94997e+20 304.024 298.845 297.309 4999.21 1.44636 0.772421 1.94997e+20 0 0 0 0 0 
91173 0 19.67 1.87835e+20 305.157 302.826 298.421 4997.91 3.15691 0.718931 1.87835e+20 0 0 0 0 0 
156709 0 19.7133 1.88248e+20 302.188 296.284 299.119 5002.4 4.71681 -1.78461 1.88248e+20 0 0 0 0 0 
222245 0 19.6 1.87166e+20 290.638 299.362 296.841 5002.67 -1.51975 4.43141 1.87166e+20 0 0 0 0 0 
287781 0 19.6533 1.87676e+20 298.513 294.652 297.924 5000.93 -4.08102 -1.84934 1.87676e+20 0 0 0 0 0 
99365 0 19.8867 1.89904e+20 299.74 305.043 297.893 5001.28 3.28565 -3.25332 1.89904e+20 0 0 0 0 0 
164901 0 19.5333 1.8653e+20 306.3 299.985 298.35 5002.85 2.41042 -0.652811 1.8653e+20 0 0 0 0 0 
230437 0 19.52 1.86402e+20 297.49 295.542 294.528 5002.16 -1.89817 -1.24508 1.86402e+20 0 0 0 0 0 
295973 0 19.6767 1.87898e+20 296.851 298.751 298.111 5001.05 0.542662 4.79843 1.87898e+20 0 0 0 0 0 
75813 0 19.6967 1.88089e+20 296.204 298.776 297.582 5001.32 -2.36839 -3.39568 1.88089e+20 0 0 0 0 0 
141349 0 19.89 1.89936e+20 299.295 293.751 299.779 5004.74 -4.74782 2.85864 1.89936e+20 0 0 0 0 0 
206885 0 20.01 1.91081e+20 299.905 301.024 298.355 5000.58 -6.42868 -1.63622 1.91081e+20 0 0 0 0 0 
272421 0 20.1933 1.92832e+20 305.116 301.402 301.6 5001.52 0.970259 0.867292 1.92832e+20 0 0 0 0 0 
84005 0 19.5467 1.86657e+20 296.766 299.102 297.929 5003.58 -3.74166 0.792389 1.86657e+20 0 0 0 0 0 
149541 0 20.13 1.92227e+20 300.139 298.988 298.362 4998.75 -4.93458 -0.859492 1.92227e+20 0 0 0 0 0 
215077 0 19.9033 1.90063e+20 297.059 304.226 296.295 4996.93 -4.47501 -5.11338 1.90063e+20 0 0 0 0 0 
280613 0 19.73 1.88408e+20 305.503 298.625 298.65 5001.2 -0.511655 1.62906 1.88408e+20 0 0 0 0 0 
92197 0 19.59 1.87071e+20 295.791 302.834 296.141 5004.68 8.34626 -0.699485 1.87071e+20 0 0 0 0 0 
157733 0 20.0367 1.91336e+20 305.93 300.424 297.427 5000.17 2.29857 -2.51235 1.91336e+20 0 0 0 0 0 
223269 0 19.6267 1.87421e+20 299.237 287.817 294.017 5001.79 -2.43482 -0.402362 1.87421e+20 0 0 0 0 0 
288805 0 19.3133 1.84429e+20 299.726 298.306 295.681 5003.31 -2.78592 3.39053 1.84429e+20 0 0 0 0 0 
100389 0 19.6833 1.87962e+20 299.821 300.891 300.036 5003.86 5.48886 1.60796 1.87962e+20 0 0 0 0 0 
165925 0 19.9167 1.9019e+20 301.738 301.315 297.021 5001.38 7.51352 -1.95159 1.9019e+20 0 0 0 0 0 
231461 0 19.7033 1.88153e+20 296.808 292.237 294.55 5001.12 1.14326 1.9617 1.88153e+20 0 0 0 0 0 
296997 0 19.3667 1.84938e+20 297.476 295.675 294.196 5000.16 -1.62184 -1.39716 1.84938e+20 0 0 0 0 0 
76837 0 19.8833 1.89872e+20 295.474 297.32 298.631 4996.53 2.04802 3.27707 1.89872e+20 0 0 0 0 0 
142373 0 20.1167 1.921e+20 297.401 301.406 297.822 5003.06 1.57091 3.04937 1.921e+20 0 0 0 0 0 
207909 0 19.8367 1.89426e+20 300.383 302.705 301.712 4996 -1.21216 2.41291 1.89426e+20 0 0 0 0 0 
273445 0 20.0867 1.91814e+20 300.469 298.369 299.1 4995.91 -0.934156 -2.77488 1.91814e+20 0 0 0 0 0 
85029 0 19.5167 1.8637e+20 294.454 296.92 302.359 4997.35 -2.03076 -1.35483 1.8637e+20 0 0 0 0 0 
150565 0 19.93 1.90317e+20 296.815 300.835 298.348 4997.29 -3.48411 4.02344 1.90317e+20 0 0 0 0 0 
216101 0 19.8967 1.89999e+20 298.509 299.144 299.06 4995.17 0.721022 1.31258 1.89999e+20 0 0 0 0 0 
281637 0 19.8767 1.89808e+20 302.326 299.699 299.857 4996.46 -2.58857 1.36155 1.89808e+20 0 0 0 0 0 
93221 0 19.5533 1.86721e+20 298.829 297.834 296.018 5001.85 0.0426859 4.58296 1.86721e+20 0 0 0 0 0 
158757 0 19.87 1.89745e+20 299.142 310.562 297.684 5005.92 -4.35191 3.39301 1.89745e+20 0 0 0 0 0 