ITEM: TIMESTEP
20000
ITEM: NUMBER OF CELLS
26430
ITEM: BOX BOUNDS oo ao pp
-2.5 5
0 5
-0.0005 0.0005
ITEM: CELLS id proc f_avg_n f_avg_nrho f_avg_temp_tra f_avg_temp_rot f_avg_temp_vib f_avg_vel[1] f_avg_vel[2] f_avg_vel[3] f_avg_nrho_CO2 f_avg_nrho_O2 f_avg_nrho_C2 f_avg_nrho_CO f_avg_nrho_O f_avg_nrho_C 
74753 0 21.46 2.04928e+20 301.804 299.464 296.913 5003.11 16.7075 2.94608 2.04928e+20 0 0 0 0 0 
140289 0 22.1071 2.11108e+20 303.497 299.136 299.565 4998.38 36.4909 -1.01762 2.11108e+20 0 0 0 0 0 
205825 0 21.0157 2.00685e+20 299.36 298.498 299.844 4996.13 -1.0881 0.921256 2.00685e+20 0 0 0 0 0 
271361 0 21.0071 2.00603e+20 302.953 299.357 299.164 4996.57 0.502407 -0.897572 2.00603e+20 0 0 0 0 0 
82945 0 22.8743 2.18433e+20 302.718 297.237 298.079 5000.65 46.658 2.12562 2.18433e+20 0 0 0 0 0 
148481 0 23.05 2.20111e+20 302.859 302.452 299.23 4999.69 52.9648 0.583009 2.20111e+20 0 0 0 0 0 
214017 0 20.8486 1.99089e+20 299.193 300.73 300.48 4997.73 1.41042 -0.929408 1.99089e+20 0 0 0 0 0 
279553 0 20.8857 1.99444e+20 301.692 299.847 299.075 4998.19 1.9303 2.13245 1.99444e+20 0 0 0 0 0 
91137 0 20.8871 1.99458e+20 299.215 303.261 298.715 5003.1 2.38023 1.07295 1.99458e+20 0 0 0 0 0 
156673 0 20.8443 1.99048e+20 303.423 297.208 297.957 5000.34 5.40852 2.9919 1.99048e+20 0 0 0 0 0 
222209 0 21 2.00535e+20 301.582 304.954 299.492 4999.33 -2.11486 -0.0966443 2.00535e+20 0 0 0 0 0 
287745 0 20.9814 2.00358e+20 301.057 299.429 298.645 4996.88 -1.89557 -1.59756 2.00358e+20 0 0 0 0 0 
99329 0 20.8314 1.98925e+20 300.963 303.953 298.598 5000.96 -0.0566398 1.11643 1.98925e+20 0 0 0 0 0 
164865 0 20.8414 1.99021e+20 301.727 300.615 297.049 5000.58 0.936767 0.383459 1.99021e+20 0 0 0 0 0 
230401 0 21.07 2.01204e+20 297.565 306.24 300.688 5000.95 -2.3615 -0.851575 2.01204e+20 0 0 0 0 0 
295937 0 20.8657 1.99253e+20 300.511 302.927 298.845 4997.66 -2.74194 2.18285 1.99253e+20 0 0 0 0 0 
75777 0 23.3229 2.22717e+20 301.982 299.101 298.32 4999.37 52.8979 -0.633307 2.22717e+20 0 0 0 0 0 
141313 0 23.57 2.25077e+20 301.703 303.068 301.604 4998.43 55.6243 -1.25471 2.25077e+20 0 0 0 0 0 
206849 0 20.9357 1.99921e+20 300.004 299.203 298.474 4999.06 3.59156 -0.491531 1.99921e+20 0 0 0 0 0 
272385 0 21.17 2.02159e+20 301.972 298.08 298.829 4996.63 6.04354 0.292202 2.02159e+20 0 0 0 0 0 
83969 0 23.6543 2.25882e+20 299.279 299.201 299.081 4998.94 53.8662 -0.460277 2.25882e+20 0 0 0 0 0 
149505 0 23.35 2.22976e+20 297.273 300.322 299.078 5000.77 52.3424 -2.60625 2.22976e+20 0 0 0 0 0 
215041 0 20.9914 2.00453e+20 303.917 298.423 297.856 4999.62 5.36283 2.82315 2.00453e+20 0 0 0 0 0 
280577 0 21.1171 2.01654e+20 300.884 297.121 300.14 4997.79 8.64708 -0.454774 2.01654e+20 0 0 0 0 0 
92161 0 20.7829 1.98462e+20 300.873 299.345 298.855 5003.85 1.10295 1.5499 1.98462e+20 0 0 0 0 0 
157697 0 20.7443 1.98093e+20 301.274 303.137 301.408 4999.69 -0.729018 2.36802 1.98093e+20 0 0 0 0 0 
223233 0 21.0271 2.00794e+20 299.291 304.039 300.282 4998.44 -0.0916096 -1.23423 2.00794e+20 0 0 0 0 0 
288769 0 20.99 2.0044e+20 299.763 301.812 299.71 5000.05 -4.42344 0.911439 2.0044e+20 0 0 0 0 0 
100353 0 20.8186 1.98803e+20 302.421 300.106 296.372 5003.06 0.362822 -1.09403 1.98803e+20 0 0 0 0 0 
165889 0 20.7257 1.97916e+20 300.151 300.628 297.981 5001.78 0.650487 -0.705904 1.97916e+20 0 0 0 0 0 
231425 0 20.9671 2.00221e+20 300.69 303.051 299.403 4997.76 1.06747 -0.864065 2.00221e+20 0 0 0 0 0 
296961 0 21.0171 2.00699e+20 301.037 303.586 299.777 4998.49 -0.69115 -1.3112 2.00699e+20 0 0 0 0 0 
76801 0 20.8986 1.99567e+20 301.982 298 300.762 4999.42 -0.802822 1.31722 1.99567e+20 0 0 0 0 0 
142337 0 20.81 1.98721e+20 300.748 302.231 298.952 5000.84 0.294176 -2.19498 1.98721e+20 0 0 0 0 0 
207873 0 20.9986 2.00522e+20 299.567 295.74 299.271 4999.58 -0.00640019 0.622385 2.00522e+20 0 0 0 0 0 
273409 0 21.0429 2.00944e+20 300.429 298.343 296.931 5000.36 0.77094 5.01311 2.00944e+20 0 0 0 0 0 
84993 0 20.8157 1.98775e+20 303.29 295.911 296.836 5000.61 0.244002 0.8623 1.98775e+20 0 0 0 0 0 
150529 0 21.0457 2.00972e+20 303.546 300.072 302.003 5000.39 2.37118 0.33704 2.00972e+20 0 0 0 0 0 
216065 0 20.8429 1.99035e+20 297.433 299.736 298.365 5002.02 -1.00519 2.90216 1.99035e+20 0 0 0 0 0 
281601 0 21.0243 2.00767e+20 297.582 299.103 297.625 4998.7 0.786211 1.46854 2.00767e+20 0 0 0 0 0 
93185 0 21.0471 2.00985e+20 298.416 298.097 298.293 4999.85 -0.270521 1.39487 2.00985e+20 0 0 0 0 0 
158721 0 20.8914 1.99498e+20 299.176 298.659 298.079 5003.43 1.75863 -0.290393 1.99498e+20 0 0 0 0 0 
224257 0 20.8871 1.99458e+20 298.464 298.524 296.486 5000.93 1.57916 -1.77309 1.99458e+20 0 0 0 0 0 
289793 0 20.8871 1.99458e+20 299.586 298.545 297.017 5003.71 -2.30773 -1.90243 1.99458e+20 0 0 0 0 0 
101377 0 21.0743 2.01245e+20 301.034 297.453 296.787 5002.33 -0.997445 4.59034 2.01245e+20 0 0 0 0 0 
166913 0 20.92 1.99771e+20 298.245 298.612 297.617 5001.32 2.70331 -2.79327 1.99771e+20 0 0 0 0 0 
232449 0 20.7729 1.98366e+20 299.362 297.333 297.486 5003.37 0.653394 0.438887 1.98366e+20 0 0 0 0 0 
297985 0 20.8286 1.98898e+20 299.391 301.418 297.695 5000.49 -0.125442 -2.3796 1.98898e+20 0 0 0 0 0 
77825 0 20.7357 1.98011e+20 300.993 300.006 294.915 5000.57 1.77084 -2.2991 1.98011e+20 0 0 0 0 0 
143361 0 20.5771 1.96497e+20 300.534 299.56 297.961 5001.67 0.872266 0.732859 1.96497e+20 0 0 0 0 0 
208897 0 21.0386 2.00904e+20 300.58 298.794 295.741 5002.31 -2.85681 3.40088 2.00904e+20 0 0 0 0 0 
274433 0 20.6771 1.97452e+20 297.621 299.86 297.745 5000.24 -2.48653 3.15258 1.97452e+20 0 0 0 0 0 
86017 0 21.06 2.01108e+20 303.147 299.403 300.999 4997.73 -0.649231 1.07385 2.01108e+20 0 0 0 0 0 
151553 0 20.8257 1.98871e+20 300.891 299.253 296.1 4999.69 -2.68477 -0.400666 1.98871e+20 0 0 0 0 0 
217089 0 20.8986 1.99567e+20 301.035 297.449 296.999 5000.74 1.32486 1.59433 1.99567e+20 0 0 0 0 0 
282625 0 20.8557 1.99157e+20 299.575 298.923 296.386 5001.58 -1.02953 0.85922 1.99157e+20 0 0 0 0 0 
94209 0 20.9429 1.9999e+20 300.14 298.632 297.547 5004.62 1.17161 1.61393 1.9999e+20 0 0 0 0 0 
159745 0 20.9971 2.00508e+20 299.511 298.184 298.317 4999.97 4.64126 -0.206664 2.00508e+20 0 0 0 0 0 
225281 0 20.7729 1.98366e+20 297.463 298.016 297.901 5001.8 -0.631564 -0.385484 1.98366e+20 0 0 0 0 0 
290817 0 20.8357 1.98966e+20 297.947 301.168 295.818 5005.17 -1.59113 1.1347 1.98966e+20 0 0 0 0 0 
102401 0 21.0957 2.01449e+20 295.313 300.659 297.77 5002.69 0.0746546 -0.508325 2.01449e+20 0 0 0 0 0 
167937 0 20.92 1.99771e+20 300.145 301.808 296.202 5002.63 3.6072 0.828577 1.99771e+20 0 0 0 0 0 
233473 0 20.8271 1.98885e+20 296.324 304.451 297.602 5000.79 -3.32107 0.363341 1.98885e+20 0 0 0 0 0 
299009 0 20.7829 1.98462e+20 301.399 299.746 296.446 5001.52 -2.29016 0.128469 1.98462e+20 0 0 0 0 0 
74757 0 20.6229 1.96934e+20 298.062 297.108 297.096 4998.69 -2.26305 0.575459 1.96934e+20 0 0 0 0 0 
140293 0 20.3714 1.94533e+20 295.298 290.832 299.367 5003.31 0.657537 -0.0341754 1.94533e+20 0 0 0 0 0 
205829 0 20.6671 1.97357e+20 297.914 300.569 295.99 5001.33 0.236551 2.48397 1.97357e+20 0 0 0 0 0 
271365 0 20.82 1.98816e+20 298.079 296.041 300.347 5000.1 2.57832 3.33666 1.98816e+20 0 0 0 0 0 
82949 0 20.5057 1.95815e+20 297.563 296.339 296.713 5002.12 -0.0376764 -0.552431 1.95815e+20 0 0 0 0 0 
148485 0 20.4614 1.95392e+20 301.97 293.289 297.333 5002.03 2.35243 0.331997 1.95392e+20 0 0 0 0 0 
214021 0 20.6671 1.97357e+20 303.821 298.782 300.07 5000.26 2.31594 1.82056 1.97357e+20 0 0 0 0 0 
279557 0 20.6457 1.97152e+20 300.582 297.794 297.637 5003.17 0.247542 4.54898 1.97152e+20 0 0 0 0 0 
91141 0 21.2143 2.02582e+20 300.992 300.26 297.496 4996.09 5.79213 0.514028 2.02582e+20 0 0 0 0 0 
156677 0 21.08 2.01299e+20 296.788 302.221 298.193 5000.2 7.04731 -0.184139 2.01299e+20 0 0 0 0 0 
222213 0 20.7971 1.98598e+20 299.603 298.418 297.827 5003.22 4.57863 0.163318 1.98598e+20 0 0 0 0 0 
287749 0 20.5171 1.95924e+20 299.44 299.49 299.953 5001.09 3.53745 -2.9628 1.95924e+20 0 0 0 0 0 
99333 0 21.06 2.01108e+20 301.85 301.168 297.932 4997.97 5.49371 0.6237 2.01108e+20 0 0 0 0 0 
164869 0 21.1129 2.01613e+20 298.755 301.79 298.247 4997.58 4.04023 -0.476118 2.01613e+20 0 0 0 0 0 
230405 0 20.7557 1.98202e+20 299.981 299.153 298.746 5000.82 3.07242 0.248806 1.98202e+20 0 0 0 0 0 
295941 0 20.7657 1.98298e+20 301.341 300.262 296.807 5002.99 6.23697 -0.450371 1.98298e+20 0 0 0 0 0 
75781 0 20.2543 1.93414e+20 297.094 296.447 298.183 5000.81 -0.54115 -0.372946 1.93414e+20 0 0 0 0 0 
141317 0 20.3986 1.94792e+20 298.291 296.322 295.291 5004.4 3.17617 -0.0125351 1.94792e+20 0 0 0 0 0 
206853 0 20.7086 1.97752e+20 299.998 298.085 301.878 4998.75 2.29734 2.16993 1.97752e+20 0 0 0 0 0 
272389 0 20.7457 1.98107e+20 301.694 296.996 297.166 5000.8 0.429527 5.5428 1.98107e+20 0 0 0 0 0 
83973 0 20.23 1.93182e+20 300.958 293.388 297.932 4999.09 -0.00666095 0.741702 1.93182e+20 0 0 0 0 0 
149509 0 20.3371 1.94205e+20 299.063 297.658 296.634 5003.08 0.234555 -3.22702 1.94205e+20 0 0 0 0 0 
215045 0 20.6 1.96716e+20 301.119 301.218 298.222 5000.23 2.86753 3.9013 1.96716e+20 0 0 0 0 0 
280581 0 20.7243 1.97902e+20 299.229 297.668 300.48 5001.27 0.78532 4.63442 1.97902e+20 0 0 0 0 0 
92165 0 20.9443 2.00003e+20 298.819 300.857 296.899 4997.91 8.25282 -0.0206897 2.00003e+20 0 0 0 0 0 
157701 0 20.8986 1.99567e+20 299.708 302.728 297.929 4998.37 2.80532 -0.906377 1.99567e+20 0 0 0 0 0 
223237 0 20.6557 1.97248e+20 299.238 300.958 298.938 5000.35 3.45939 -4.5724 1.97248e+20 0 0 0 0 0 
288773 0 20.6557 1.97248e+20 301.351 298.579 297.822 5002.14 6.28544 0.483343 1.97248e+20 0 0 0 0 0 
100357 0 20.9186 1.99758e+20 296.13 300.477 297.315 4996.78 4.97844 -2.49824 1.99758e+20 0 0 0 0 0 
165893 0 20.89 1.99485e+20 300.389 302.717 298.546 4997.13 7.61268 -1.91197 1.99485e+20 0 0 0 0 0 
231429 0 20.5786 1.96511e+20 297.489 302.678 299.301 5003.29 1.19428 -5.20844 1.96511e+20 0 0 0 0 0 
296965 0 20.7143 1.97807e+20 303.302 299.916 297.179 5000.12 5.95615 -0.522551 1.97807e+20 0 0 0 0 0 
76805 0 20.8743 1.99335e+20 300.204 301.369 300.371 5000.46 3.79629 -1.69567 1.99335e+20 0 0 0 0 0 
142341 0 20.8043 1.98666e+20 301.599 303.997 298.664 5002.06 2.17542 3.09103 1.98666e+20 0 0 0 0 0 
207877 0 20.7557 1.98202e+20 301.161 301.888 298.301 5002.05 -2.03692 1.30682 1.98202e+20 0 0 0 0 0 
273413 0 20.5257 1.96006e+20 300.024 298.711 297.113 5000.62 0.118633 0.429022 1.96006e+20 0 0 0 0 0 
84997 0 20.6529 1.9722e+20 301.852 300.279 299.504 5003.48 0.501066 1.27602 1.9722e+20 0 0 0 0 0 
150533 0 20.7886 1.98516e+20 298.281 304.205 299.697 5000.69 3.27035 0.621598 1.98516e+20 0 0 0 0 0 
216069 0 20.67 1.97384e+20 299.397 301.729 296.607 5001.94 -2.48601 -0.504557 1.97384e+20 0 0 0 0 0 
281605 0 20.7229 1.97889e+20 302.025 299.244 296.339 4997.89 1.12102 -0.618903 1.97889e+20 0 0 0 0 0 
93189 0 20.7686 1.98325e+20 301.051 294.574 298.772 5001.84 -2.90599 0.728436 1.98325e+20 0 0 0 0 0 
158725 0 20.6429 1.97125e+20 300.871 299.555 297.28 5001.89 -2.02352 2.10514 1.97125e+20 0 0 0 0 0 
224261 0 20.7157 1.9782e+20 302.723 299.255 297.21 5003.89 -0.269892 1.47188 1.9782e+20 0 0 0 0 0 
289797 0 20.8086 1.98707e+20 299.735 299.573 299.002 4999.45 1.35763 -1.85059 1.98707e+20 0 0 0 0 0 
101381 0 20.7214 1.97875e+20 302.966 292.375 298.05 5003.5 -2.60592 3.31657 1.97875e+20 0 0 0 0 0 
166917 0 20.6729 1.97411e+20 302.19 296.177 297.764 5002.82 -2.99017 1.64983 1.97411e+20 0 0 0 0 0 
232453 0 20.5729 1.96456e+20 299.671 299.768 295.863 5002.25 0.182525 -1.15638 1.96456e+20 0 0 0 0 0 
297989 0 20.5543 1.96279e+20 301.348 299.277 299.299 5002.97 0.934882 -2.14941 1.96279e+20 0 0 0 0 0 
77829 0 20.8157 1.98775e+20 301.994 302.821 299.094 5001.2 -0.329215 -0.0815446 1.98775e+20 0 0 0 0 0 
143365 0 20.73 1.97957e+20 299.998 300.763 299.665 5004.32 1.43355 1.65497 1.97957e+20 0 0 0 0 0 
208901 0 20.5257 1.96006e+20 301.08 299.669 297.642 5002.55 -2.31354 0.748096 1.96006e+20 0 0 0 0 0 
274437 0 20.6657 1.97343e+20 302.459 299.563 296.877 5001.46 0.937945 -1.37098 1.97343e+20 0 0 0 0 0 
86021 0 20.8329 1.98939e+20 300.81 304.011 297.879 4998.33 1.01517 1.64907 1.98939e+20 0 0 0 0 0 
151557 0 20.9214 1.99785e+20 302.302 300.831 299.131 5003.88 1.57893 0.388223 1.99785e+20 0 0 0 0 0 
217093 0 20.7914 1.98544e+20 301.656 298.479 298.558 4999.88 -1.01221 -1.04225 1.98544e+20 0 0 0 0 0 
282629 0 20.7229 1.97889e+20 302.2 302.484 295.891 5003.03 -0.209258 2.24506 1.97889e+20 0 0 0 0 0 
94213 0 20.7543 1.98189e+20 299.272 298.022 297.305 5002.16 -1.66593 1.98167 1.98189e+20 0 0 0 0 0 
159749 0 20.7043 1.97711e+20 302.122 295.673 297.762 5003.47 -1.22313 2.82897 1.97711e+20 0 0 0 0 0 
225285 0 20.7271 1.9793e+20 299.789 300.75 297.41 5002.05 -0.185246 -1.11694 1.9793e+20 0 0 0 0 0 
290821 0 20.3657 1.94478e+20 302.343 299.187 298.023 5002.53 2.42723 -0.343771 1.94478e+20 0 0 0 0 0 
102405 0 20.7014 1.97684e+20 300.77 298.27 298.06 5002.03 -1.73418 1.18751 1.97684e+20 0 0 0 0 0 
167941 0 20.4014 1.94819e+20 299.392 296.695 296.197 5002.13 -0.489321 1.48777 1.94819e+20 0 0 0 0 0 
233477 0 20.4814 1.95583e+20 299.159 295.612 296.747 5002.62 -0.486429 -2.86233 1.95583e+20 0 0 0 0 0 
299013 0 20.62 1.96906e+20 300.512 298.178 297.036 5002.56 -1.55991 -3.10616 1.96906e+20 0 0 0 0 0 
74761 0 23.6114 2.25473e+20 6243.03 1854.54 688.851 4364.23 9.00317 0.0190429 2.25473e+20 0 0 0 0 0 
140297 0 51.9086 4.9569e+20 14993.8 8274.78 3794.13 1951.71 -2.959 27.7428 4.9569e+20 0 0 0 0 0 
205833 0 22.8657 2.18351e+20 6220.38 1809.81 695.56 4363.9 5.48355 -4.81977 2.18351e+20 0 0 0 0 0 
271369 0 51.3729 4.90575e+20 15016.6 8308.27 3776.5 1936.62 5.52375 1.48474 4.90575e+20 0 0 0 0 0 
82953 0 108.326 1.03443e+21 12870.8 10009.4 7656.89 924.5 -1.38793 19.6853 1.03443e+21 0 0 0 0 0 
148489 0 147.556 1.40905e+21 11778.5 10095.3 9182.78 658.367 12.1615 9.40429 1.40905e+21 0 0 0 0 0 
214025 0 107.473 1.02629e+21 12772.8 9897.31 7640.94 899.43 21.6534 20.8834 1.02629e+21 0 0 0 0 0 
279561 0 146.981 1.40357e+21 11850.7 10167.3 9168.14 636.942 4.47459 5.92735 1.40357e+21 0 0 0 0 0 
91145 0 22.99 2.19538e+20 6405.75 1876.49 669.213 4340.03 9.25686 -1.08063 2.19538e+20 0 0 0 0 0 
156681 0 52.1471 4.97969e+20 15115.9 8334.12 3899.76 1883.14 19.5426 13.3698 4.97969e+20 0 0 0 0 0 
222217 0 23.4214 2.23658e+20 5747.43 1723.41 592.823 4423.97 11.3043 -1.82318 2.23658e+20 0 0 0 0 0 
287753 0 53.7857 5.13616e+20 14886.5 8154 3863.4 1926.42 28.1016 10.5788 5.13616e+20 0 0 0 0 0 
99337 0 107.536 1.02689e+21 12774.5 9901.27 7651.51 898.442 16.0086 14.5621 1.02689e+21 0 0 0 0 0 
164873 0 148.734 1.42031e+21 11814.3 10135.9 9207.21 639.673 13.5772 11.3418 1.42031e+21 0 0 0 0 0 
230409 0 109.469 1.04535e+21 12785.8 9837.06 7653.34 916.627 22.1258 11.0959 1.04535e+21 0 0 0 0 0 
295945 0 149.957 1.43199e+21 11827.9 10168.6 9144.84 653.594 19.8362 2.1804 1.43199e+21 0 0 0 0 0 
75785 0 166.703 1.5919e+21 11350.8 10283.2 9647.34 555.859 2.55255 12.7596 1.5919e+21 0 0 0 0 0 
141321 0 179.217 1.7114e+21 11215.2 10325.1 9985.47 483.682 11.9408 14.7988 1.7114e+21 0 0 0 0 0 
206857 0 167.267 1.59728e+21 11407.1 10337.6 9789.93 538.908 17.1046 13.2296 1.59728e+21 0 0 0 0 0 
272393 0 181.724 1.73534e+21 11207.2 10361.6 10003.4 469.673 18.6118 8.38181 1.73534e+21 0 0 0 0 0 
83977 0 192.637 1.83955e+21 11051.3 10454 10009.7 411.318 15.757 9.62238 1.83955e+21 0 0 0 0 0 
149513 0 205.964 1.96681e+21 10797 10543.7 10121.9 350.482 5.84775 3.933 1.96681e+21 0 0 0 0 0 
215049 0 198.761 1.89803e+21 11029.3 10467.9 10101.3 395.593 18.6568 -1.02319 1.89803e+21 0 0 0 0 0 
280585 0 209.736 2.00283e+21 10826.9 10469.8 10142 349.527 19.4646 2.65862 2.00283e+21 0 0 0 0 0 
92169 0 170.847 1.63147e+21 11398.6 10322.4 9771.45 524.355 29.0027 11.8392 1.63147e+21 0 0 0 0 0 
157705 0 184.274 1.75969e+21 11259.5 10392.1 10056.7 453.567 36.3827 -4.5776 1.75969e+21 0 0 0 0 0 
223241 0 170.436 1.62754e+21 11385.9 10295.8 9803.72 541.305 36.103 1.2909 1.62754e+21 0 0 0 0 0 
288777 0 184.56 1.76242e+21 11248.3 10376.5 10041.5 474.192 41.1252 0.373544 1.76242e+21 0 0 0 0 0 
100361 0 197.939 1.89017e+21 11046.1 10411.5 10075.6 389.24 23.3046 1.86256 1.89017e+21 0 0 0 0 0 
165897 0 208.659 1.99254e+21 10825.8 10565.5 10164.6 344.552 31.3602 10.9077 1.99254e+21 0 0 0 0 0 
231433 0 198.656 1.89702e+21 11009.4 10506.6 10113.2 400.902 41.9531 3.30805 1.89702e+21 0 0 0 0 0 
296969 0 211.19 2.01672e+21 10848.6 10512 10218.3 346.847 38.2382 0.713695 2.01672e+21 0 0 0 0 0 
76809 0 23.3671 2.2314e+20 5628.89 1657.61 570.964 4438.41 7.27035 -7.65629 2.2314e+20 0 0 0 0 0 
142345 0 52.1143 4.97655e+20 14939.9 8209.95 3702.35 1973.06 21.7079 5.01051 4.97655e+20 0 0 0 0 0 
207881 0 23.0657 2.20261e+20 5997.69 1722.57 608.302 4407.14 9.89615 -1.18431 2.20261e+20 0 0 0 0 0 
273417 0 52.0886 4.97409e+20 15000.6 8220.63 3771.61 1948.73 39.3147 -12.2179 4.97409e+20 0 0 0 0 0 
85001 0 109.699 1.04754e+21 12824.9 9781.8 7678 917.5 33.0748 -6.13426 1.04754e+21 0 0 0 0 0 
150537 0 147.831 1.41169e+21 11882.3 10140.9 9169.55 650.005 32.5757 2.18919 1.41169e+21 0 0 0 0 0 
216073 0 109.296 1.0437e+21 12882.6 9992.67 7819.69 896.849 51.5089 0.485894 1.0437e+21 0 0 0 0 0 
281609 0 146.381 1.39784e+21 11884.6 10233.5 9249.66 634.311 49.1066 -11.0094 1.39784e+21 0 0 0 0 0 
93193 0 22.9029 2.18706e+20 5839.78 1728.39 607.068 4409.66 2.21536 -7.90749 2.18706e+20 0 0 0 0 0 
158729 0 51.03 4.87301e+20 15083.5 8141.51 3679.66 1958.26 56.9432 -17.3608 4.87301e+20 0 0 0 0 0 
224265 0 22.7514 2.1726e+20 5788.57 1674.47 560.045 4424.26 4.50582 1.92878 2.1726e+20 0 0 0 0 0 
289801 0 50.8443 4.85527e+20 14979 8008.62 3619.16 1989.01 58.2211 -3.40607 4.85527e+20 0 0 0 0 0 
101385 0 106.767 1.01955e+21 12932.5 9941.08 7697.91 908.336 64.9461 -6.73623 1.01955e+21 0 0 0 0 0 
166921 0 145.47 1.38914e+21 11876.3 10190.9 9272.06 629.726 58.2661 -3.64323 1.38914e+21 0 0 0 0 0 
232457 0 109.074 1.04158e+21 12876.6 9934.14 7638.66 900.131 77.1304 2.84389 1.04158e+21 0 0 0 0 0 
297993 0 146.517 1.39914e+21 11857.8 10117.9 9208.13 642.896 75.9283 3.77601 1.39914e+21 0 0 0 0 0 
77833 0 170.169 1.62499e+21 11480.9 10312.5 9767.67 531.579 44.4457 -5.33617 1.62499e+21 0 0 0 0 0 
143369 0 185.187 1.76841e+21 11306.8 10382.3 10068.1 463.378 50.4694 -1.42262 1.76841e+21 0 0 0 0 0 
208905 0 169.829 1.62174e+21 11488.1 10374.9 9790.95 528.325 52.1842 -15.1938 1.62174e+21 0 0 0 0 0 
274441 0 186.276 1.7788e+21 11242.8 10383.4 10040 458.911 58.597 -5.51456 1.7788e+21 0 0 0 0 0 
86025 0 198.536 1.89588e+21 11016.9 10528.4 10107.1 403.46 50.1584 16.9673 1.89588e+21 0 0 0 0 0 
151561 0 211.41 2.01882e+21 10756.9 10462.6 10217.4 347.515 54.6513 6.00909 2.01882e+21 0 0 0 0 0 
217097 0 201.437 1.92358e+21 11044.1 10561 10122 392.347 60.3479 0.46241 1.92358e+21 0 0 0 0 0 
282633 0 212.789 2.03198e+21 10801.7 10559.4 10286.8 340.88 68.4698 4.22812 2.03198e+21 0 0 0 0 0 
94217 0 166.91 1.59387e+21 11482.7 10359.6 9875.12 520.274 63.327 -0.415884 1.59387e+21 0 0 0 0 0 
159753 0 183.91 1.75621e+21 11235.9 10354.6 10031.5 444.053 74.6022 -10.8844 1.75621e+21 0 0 0 0 0 
225289 0 168.113 1.60536e+21 11530.5 10349.9 9775.75 529.925 72.1251 -2.5595 1.60536e+21 0 0 0 0 0 
290825 0 185.369 1.77014e+21 11219.7 10339.1 9965.18 450.452 81.2092 7.44054 1.77014e+21 0 0 0 0 0 
102409 0 198.093 1.89165e+21 11003 10517.9 10086.5 380.753 72.8104 8.1867 1.89165e+21 0 0 0 0 0 
167945 0 211.744 2.02201e+21 10800.8 10636.7 10292.5 322.366 79.7004 2.55427 2.02201e+21 0 0 0 0 0 
233481 0 203.44 1.94271e+21 10921.6 10449.6 10055.1 374.764 88.7524 -0.44415 1.94271e+21 0 0 0 0 0 
299017 0 214.839 2.05156e+21 10762.2 10456.8 10270.4 320.965 92.9922 -3.18014 2.05156e+21 0 0 0 0 0 
74785 0 20.9029 1.99608e+20 298.835 298.356 299.492 5000.46 3.97533 0.265545 1.99608e+20 0 0 0 0 0 
140321 0 20.82 1.98816e+20 300.988 300.611 297.741 4998.09 -3.00449 0.509541 1.98816e+20 0 0 0 0 0 
205857 0 20.8943 1.99526e+20 299.087 299.948 299.593 5000.22 -0.0841344 2.27364 1.99526e+20 0 0 0 0 0 
271393 0 20.7471 1.98121e+20 300.748 297.724 298.898 5002.79 -1.67627 1.9741 1.98121e+20 0 0 0 0 0 
82977 0 20.9 1.9958e+20 299.524 296.6 299.516 5000.68 -0.661866 0.192248 1.9958e+20 0 0 0 0 0 
148513 0 20.7 1.9767e+20 301.736 298.122 298.184 4998.33 2.59996 -0.583221 1.9767e+20 0 0 0 0 0 
214049 0 20.9357 1.99921e+20 301.46 301.619 298.008 5002.22 1.76305 3.01637 1.99921e+20 0 0 0 0 0 
279585 0 20.8129 1.98748e+20 300.979 296.725 298.746 4998.88 -2.28704 0.209124 1.98748e+20 0 0 0 0 0 
91169 0 20.9714 2.00262e+20 301.796 294.532 297.169 5002.17 -3.59818 -1.18918 2.00262e+20 0 0 0 0 0 
156705 0 20.74 1.98052e+20 300.043 298.856 297.084 5003.01 -1.35746 0.368863 1.98052e+20 0 0 0 0 0 
222241 0 20.6557 1.97248e+20 304.718 301.388 297.3 5001.44 -0.999229 -1.49738 1.97248e+20 0 0 0 0 0 
287777 0 20.7471 1.98121e+20 304.091 299.508 297.27 5000.63 -0.529389 -1.41387 1.98121e+20 0 0 0 0 0 
99361 0 21.0229 2.00753e+20 300.637 300.025 297.22 5000.78 -4.49118 -2.61175 2.00753e+20 0 0 0 0 0 
164897 0 20.7343 1.97998e+20 301.057 296.125 296.001 5000.49 -3.4523 3.75726 1.97998e+20 0 0 0 0 0 
230433 0 20.8014 1.98639e+20 301.569 296.338 295.907 4999.61 0.22634 1.04318 1.98639e+20 0 0 0 0 0 
295969 0 20.66 1.97288e+20 301.074 300.487 297.07 5000.03 -0.32359 -1.9044 1.97288e+20 0 0 0 0 0 
75809 0 20.8986 1.99567e+20 300.052 296.97 297.257 5001.91 -3.81795 -0.0140703 1.99567e+20 0 0 0 0 0 
141345 0 20.8329 1.98939e+20 299.14 297.509 299.483 4997.36 2.23809 -1.37595 1.98939e+20 0 0 0 0 0 
206881 0 20.8429 1.99035e+20 303.024 298.664 298.04 5004.08 2.44133 1.87969 1.99035e+20 0 0 0 0 0 
272417 0 20.8129 1.98748e+20 302.104 299.327 299.377 4998.16 0.818869 -0.311802 1.98748e+20 0 0 0 0 0 
84001 0 20.76 1.98243e+20 298.908 297.282 298.302 5001.18 -0.864972 0.144445 1.98243e+20 0 0 0 0 0 
149537 0 20.9114 1.99689e+20 299.523 294.521 298.984 5001.01 -2.11154 -2.3802 1.99689e+20 0 0 0 0 0 
215073 0 20.74 1.98052e+20 301.092 297.857 298.631 5002.04 2.15664 2.08365 1.98052e+20 0 0 0 0 0 
280609 0 20.7257 1.97916e+20 299.518 301.431 297.944 5001.18 2.47377 2.27068 1.97916e+20 0 0 0 0 0 
92193 0 20.7814 1.98448e+20 299.81 298.318 298.432 5002.53 -2.17182 -1.50973 1.98448e+20 0 0 0 0 0 
157729 0 21.1429 2.01899e+20 302.411 295.878 296.118 5003.07 -4.20122 -2.03151 2.01899e+20 0 0 0 0 0 
223265 0 20.6043 1.96756e+20 303.386 297.045 296.65 5000.6 -0.44283 1.12798 1.96756e+20 0 0 0 0 0 
288801 0 20.6814 1.97493e+20 300.433 299.387 295.535 4999.96 -0.282634 -0.896068 1.97493e+20 0 0 0 0 0 
100385 0 20.6 1.96716e+20 303.78 296.068 297.304 5000.79 -5.26605 3.42977 1.96716e+20 0 0 0 0 0 
165921 0 21.01 2.00631e+20 302.322 297.293 297.764 5004.14 -3.10644 0.178341 2.00631e+20 0 0 0 0 0 
231457 0 20.67 1.97384e+20 302.555 299.308 296.659 4999.07 -0.6038 -0.821277 1.97384e+20 0 0 0 0 0 
296993 0 20.5529 1.96265e+20 301.556 295.627 295.145 5002.46 -1.49281 0.925061 1.96265e+20 0 0 0 0 0 
76833 0 20.7271 1.9793e+20 294.858 299.377 298.752 5000.59 -3.45093 0.839848 1.9793e+20 0 0 0 0 0 
142369 0 20.9714 2.00262e+20 298.356 299.229 299.804 5001.03 -1.24515 -0.571352 2.00262e+20 0 0 0 0 0 
207905 0 21.0286 2.00808e+20 302.964 301.755 296.556 5001.24 -2.86128 2.22991 2.00808e+20 0 0 0 0 0 
273441 0 20.8471 1.99076e+20 298.18 302.909 298.135 5003.17 -2.88204 2.43524 1.99076e+20 0 0 0 0 0 
85025 0 20.75 1.98148e+20 298.857 296.635 297.716 4999.61 -0.721183 0.897921 1.98148e+20 0 0 0 0 0 
150561 0 20.88 1.99389e+20 299.028 299.587 298.852 5001.42 0.452892 -0.514554 1.99389e+20 0 0 0 0 0 
216097 0 20.7043 1.97711e+20 301.206 304.602 295.334 5002.74 -2.08381 2.42596 1.97711e+20 0 0 0 0 0 
281633 0 20.9886 2.00426e+20 300.666 299.803 297.061 5000.57 -1.30122 1.25372 2.00426e+20 0 0 0 0 0 
93217 0 20.8686 1.9928e+20 299.81 296.82 297.249 4999.79 1.66696 2.09117 1.9928e+20 0 0 0 0 0 
158753 0 20.7971 1.98598e+20 300.787 299.885 296.969 5002.93 -0.121283 2.23852 1.98598e+20 0 0 0 0 0 
224289 0 20.7486 1.98134e+20 297.814 301.208 298.124 5002.05 -1.11395 -0.0562775 1.98134e+20 0 0 0 0 0 
289825 0 20.8071 1.98694e+20 297.908 301.881 297.903 5002.68 2.33894 5.4238 1.98694e+20 0 0 0 0 0 
101409 0 20.86 1.99198e+20 298.382 296.177 298.817 5000.7 1.04406 3.44356 1.99198e+20 0 0 0 0 0 
166945 0 20.7586 1.9823e+20 300.512 300.631 296.454 5002.9 -0.74686 0.166949 1.9823e+20 0 0 0 0 0 
232481 0 20.5186 1.95938e+20 299.353 299.333 298.019 5001.38 -0.966506 2.00288 1.95938e+20 0 0 0 0 0 
298017 0 20.9043 1.99621e+20 300.082 302.99 299.27 5001.6 -3.37634 3.46475 1.99621e+20 0 0 0 0 0 
77857 0 21.07 2.01204e+20 299.829 300.596 300.948 5001.13 -0.350968 -1.26881 2.01204e+20 0 0 0 0 0 
143393 0 21.0157 2.00685e+20 299.804 299.599 297.015 5000.44 -1.07591 2.49108 2.00685e+20 0 0 0 0 0 
208929 0 20.5557 1.96293e+20 299.761 301.868 299.06 5000.25 -1.74971 4.26424 1.96293e+20 0 0 0 0 0 
274465 0 20.6271 1.96975e+20 300.574 301.718 295.181 5001.34 0.957434 -0.618808 1.96975e+20 0 0 0 0 0 
86049 0 20.8657 1.99253e+20 297.461 298.415 300.53 5002 -0.397006 -2.18262 1.99253e+20 0 0 0 0 0 
151585 0 20.9743 2.0029e+20 300.384 302.319 299.062 5001.51 0.986202 0.744364 2.0029e+20 0 0 0 0 0 
217121 0 20.7043 1.97711e+20 299.763 296.659 296.884 5001.62 -2.76087 2.54145 1.97711e+20 0 0 0 0 0 
282657 0 20.4129 1.94928e+20 297.838 302.534 297.335 5000.87 -1.8825 1.66228 1.94928e+20 0 0 0 0 0 
94241 0 20.81 1.98721e+20 300.208 295.155 297.085 5003.39 0.860831 3.8765 1.98721e+20 0 0 0 0 0 
159777 0 20.7957 1.98584e+20 298.394 299.537 298.055 5002.09 -0.662713 2.58159 1.98584e+20 0 0 0 0 0 
225313 0 20.7257 1.97916e+20 300.322 298.199 297.145 5001.72 0.604545 3.65584 1.97916e+20 0 0 0 0 0 
290849 0 20.8529 1.9913e+20 300.235 301.535 298.121 5002.41 0.207955 0.0596766 1.9913e+20 0 0 0 0 0 
102433 0 20.82 1.98816e+20 297.268 300.817 299.009 5000.59 2.06857 0.381929 1.98816e+20 0 0 0 0 0 
167969 0 20.9086 1.99662e+20 297.758 300.38 299.342 5003.24 -2.04549 3.91829 1.99662e+20 0 0 0 0 0 
233505 0 20.9143 1.99717e+20 300.747 302.931 298.412 5000.5 -0.804513 3.82666 1.99717e+20 0 0 0 0 0 
299041 0 20.6086 1.96797e+20 301.708 298.396 298.346 5000.3 -1.40663 1.26672 1.96797e+20 0 0 0 0 0 
74789 0 20.6429 1.97125e+20 296.946 298.217 297.685 5002.08 -1.70538 -1.17814 1.97125e+20 0 0 0 0 0 
140325 0 20.4086 1.94888e+20 298.119 301.192 299.418 5006.03 -2.17587 -0.583719 1.94888e+20 0 0 0 0 0 
205861 0 20.9229 1.99799e+20 302.809 300.329 299.405 5000.21 -1.60849 2.21563 1.99799e+20 0 0 0 0 0 
271397 0 20.92 1.99771e+20 303.224 300.07 298.053 4997.42 -0.468252 1.61256 1.99771e+20 0 0 0 0 0 
82981 0 20.5486 1.96224e+20 297.233 300.453 299.359 5002.85 -1.60734 -0.876225 1.96224e+20 0 0 0 0 0 
148517 0 20.3571 1.94396e+20 298.974 300.927 298.961 5004.59 -2.77295 2.39022 1.94396e+20 0 0 0 0 0 
214053 0 20.85 1.99103e+20 300.404 301.166 297.855 5001.91 -1.82911 -0.961095 1.99103e+20 0 0 0 0 0 
279589 0 20.7557 1.98202e+20 302.252 298.748 297.813 4998.02 0.704657 1.54958 1.98202e+20 0 0 0 0 0 
91173 0 20.3771 1.94587e+20 301.92 296.419 297.726 4998.85 1.84306 0.267276 1.94587e+20 0 0 0 0 0 
156709 0 20.5314 1.96061e+20 302.054 296.03 296.75 5003.52 3.65647 0.0163205 1.96061e+20 0 0 0 0 0 
222245 0 20.4729 1.95501e+20 295.913 300.078 296.97 5001.46 -1.63934 3.68283 1.95501e+20 0 0 0 0 0 
287781 0 20.3986 1.94792e+20 298.133 296.945 298.614 5000.76 -2.3854 3.3968 1.94792e+20 0 0 0 0 0 
99365 0 20.5514 1.96252e+20 301.78 299.465 297.902 4998.6 -1.66755 -2.09682 1.96252e+20 0 0 0 0 0 
164901 0 20.3571 1.94396e+20 305.27 297.446 297.813 5001.22 2.8966 -0.87901 1.94396e+20 0 0 0 0 0 
230437 0 20.3543 1.94369e+20 297.522 295.586 297.372 5002.38 -2.32233 1.20289 1.94369e+20 0 0 0 0 0 
295973 0 20.3914 1.94724e+20 297.203 299.63 298.337 5002.56 0.611795 2.50516 1.94724e+20 0 0 0 0 0 
75813 0 20.5957 1.96675e+20 297.832 298.574 298.637 5003.08 -0.495324 0.385127 1.96675e+20 0 0 0 0 0 
141349 0 20.52 1.95952e+20 301.065 299.964 298.377 5004.42 -1.07099 0.848604 1.95952e+20 0 0 0 0 0 
206885 0 20.72 1.97861e+20 302.092 301.868 298.712 4999.3 -3.70269 -1.34376 1.97861e+20 0 0 0 0 0 
272421 0 20.92 1.99771e+20 301.058 299.125 299.463 4999.57 -1.51939 -1.10891 1.99771e+20 0 0 0 0 0 
84005 0 20.3571 1.94396e+20 300.214 299.614 297.352 5004.71 0.473209 2.60844 1.94396e+20 0 0 0 0 0 
149541 0 20.8329 1.98939e+20 299.424 300.87 297.816 5001.1 -1.57178 -1.41294 1.98939e+20 0 0 0 0 0 
215077 0 20.4286 1.95078e+20 300.976 302.789 297.604 4998.95 -3.51364 -4.76745 1.95078e+20 0 0 0 0 0 
280613 0 20.5686 1.96415e+20 300.885 300.156 298.445 5000.58 -1.59467 1.6489 1.96415e+20 0 0 0 0 0 
92197 0 20.5429 1.9617e+20 298.214 299.177 296.94 5003.85 4.43615 1.38718 1.9617e+20 0 0 0 0 0 
157733 0 20.6457 1.97152e+20 303.764 299.698 297.76 5000.09 0.171306 -0.973425 1.97152e+20 0 0 0 0 0 
223269 0 20.49 1.95665e+20 299.229 293.226 296.16 5003.62 -1.92657 3.1463 1.95665e+20 0 0 0 0 0 
288805 0 20.2614 1.93482e+20 297.603 296.862 297.986 5003.37 -2.12089 3.3237 1.93482e+20 0 0 0 0 0 
100389 0 20.5986 1.96702e+20 299.65 298.067 298.276 5000.13 3.7098 1.06134 1.96702e+20 0 0 0 0 0 
165925 0 20.7843 1.98475e+20 302.528 299.613 296.513 5000.84 4.99323 1.29713 1.98475e+20 0 0 0 0 0 
231461 0 20.5129 1.95883e+20 299.343 294.363 296.822 5001.36 2.69822 3.22103 1.95883e+20 0 0 0 0 0 
296997 0 20.2614 1.93482e+20 298.459 295.859 296.93 5002.8 -4.2285 0.100262 1.93482e+20 0 0 0 0 0 
76837 0 20.4471 1.95256e+20 300.154 298.739 299.58 5000.63 -0.0969732 3.11718 1.95256e+20 0 0 0 0 0 
142373 0 20.4586 1.95365e+20 298.492 297.808 298.582 5003.8 -1.42948 0.355162 1.95365e+20 0 0 0 0 0 
207909 0 20.6886 1.97561e+20 299.715 302.255 299.237 5002.03 1.49887 -0.396186 1.97561e+20 0 0 0 0 0 
273445 0 20.6386 1.97084e+20 300.91 302.247 297.934 4996.42 -0.276665 -2.68321 1.97084e+20 0 0 0 0 0 
85029 0 20.1929 1.92828e+20 299.535 296.591 302.688 5000.29 -1.35608 2.05166 1.92828e+20 0 0 0 0 0 
150565 0 20.3786 1.94601e+20 296.924 301.626 298.917 4999.54 -1.95941 2.62103 1.94601e+20 0 0 0 0 0 
216101 0 20.6857 1.97534e+20 299.061 300.873 300.144 4998.83 0.594095 0.471003 1.97534e+20 0 0 0 0 0 
281637 0 20.65 1.97193e+20 300.831 300.776 297.746 4999.4 0.85416 0.0727507 1.97193e+20 0 0 0 0 0 