ITEM: TIMESTEP
22000
ITEM: NUMBER OF CELLS
26430
ITEM: BOX BOUNDS oo ao pp
-2.5 5
0 5
-0.0005 0.0005
ITEM: CELLS id proc f_avg_n f_avg_nrho f_avg_temp_tra f_avg_temp_rot f_avg_temp_vib f_avg_vel[1] f_avg_vel[2] f_avg_vel[3] f_avg_nrho_CO2 f_avg_nrho_O2 f_avg_nrho_C2 f_avg_nrho_CO f_avg_nrho_O f_avg_nrho_C 
74753 0 21.4356 2.04694e+20 300.353 301.451 296.61 5003.87 16.1776 4.62596 2.04694e+20 0 0 0 0 0 
140289 0 22.1733 2.1174e+20 301.399 299.103 299.559 5000 36.1875 0.0548944 2.1174e+20 0 0 0 0 0 
205825 0 20.9556 2.00111e+20 299.438 298.887 299.071 4996.42 1.01664 1.43759 2.00111e+20 0 0 0 0 0 
271361 0 20.9978 2.00514e+20 301.495 299.929 297.733 4995.72 0.714878 -0.733542 2.00514e+20 0 0 0 0 0 
82945 0 22.89 2.18583e+20 302.521 298.106 297.858 5003.75 45.4655 3.42133 2.18583e+20 0 0 0 0 0 
148481 0 23.08 2.20398e+20 301.221 303.087 298.49 5000.62 52.9786 1.109 2.20398e+20 0 0 0 0 0 
214017 0 20.8456 1.9906e+20 300.127 301.769 299.486 4997.42 2.57142 -0.137085 1.9906e+20 0 0 0 0 0 
279553 0 20.8767 1.99357e+20 301.176 299.843 297.195 4997.73 2.29875 2.09392 1.99357e+20 0 0 0 0 0 
91137 0 20.8867 1.99453e+20 298.9 302.891 297.859 5001.91 3.1711 0.0529756 1.99453e+20 0 0 0 0 0 
156673 0 20.8722 1.99315e+20 303.317 297.886 297.532 5000.29 4.4996 1.97588 1.99315e+20 0 0 0 0 0 
222209 0 21.0056 2.00588e+20 299.378 304.737 299.958 4999.43 -3.77245 -0.355072 2.00588e+20 0 0 0 0 0 
287745 0 21.0144 2.00673e+20 300.931 299.226 299.296 4997.62 -2.98818 -1.23316 2.00673e+20 0 0 0 0 0 
99329 0 20.8389 1.98997e+20 299.251 303.021 298.785 5000.2 0.0566801 0.310498 1.98997e+20 0 0 0 0 0 
164865 0 20.8444 1.9905e+20 300.791 300.675 296.667 5000.84 2.04835 0.0458587 1.9905e+20 0 0 0 0 0 
230401 0 21.0922 2.01416e+20 297.124 305.624 300.828 5001.5 -3.3721 -0.766966 2.01416e+20 0 0 0 0 0 
295937 0 20.9956 2.00493e+20 300.811 302.342 299.236 4999.07 -5.11046 1.18155 2.00493e+20 0 0 0 0 0 
75777 0 23.4022 2.23475e+20 300.156 299.82 298.15 5001.88 53.9248 -1.26681 2.23475e+20 0 0 0 0 0 
141313 0 23.5278 2.24674e+20 299.471 303.065 300.514 5001.14 56.0595 -0.632577 2.24674e+20 0 0 0 0 0 
206849 0 21.0033 2.00567e+20 300.961 299.812 298.042 4997.99 3.18099 0.510482 2.00567e+20 0 0 0 0 0 
272385 0 21.1367 2.0184e+20 301.983 298.688 298.709 4995.42 6.16857 0.107376 2.0184e+20 0 0 0 0 0 
83969 0 23.5967 2.25332e+20 297.762 299.346 297.771 5001.09 55.0813 -1.31335 2.25332e+20 0 0 0 0 0 
149505 0 23.3811 2.23273e+20 294.748 300.272 298.425 5001.47 53.5082 -2.84383 2.23273e+20 0 0 0 0 0 
215041 0 21.0378 2.00896e+20 303.991 298.784 297.039 4999.57 6.29868 2.43456 2.00896e+20 0 0 0 0 0 
280577 0 21.16 2.02063e+20 300.146 297.632 300.575 4997.48 8.38895 0.231958 2.02063e+20 0 0 0 0 0 
92161 0 20.7478 1.98127e+20 299.184 298.418 298.324 5002.97 1.41638 0.121055 1.98127e+20 0 0 0 0 0 
157697 0 20.7756 1.98392e+20 300.767 301.959 300.081 4999.56 -1.53118 2.27207 1.98392e+20 0 0 0 0 0 
223233 0 21.1089 2.01575e+20 301.204 303.134 300.402 4998.62 -1.31593 -1.34282 2.01575e+20 0 0 0 0 0 
288769 0 21.0344 2.00864e+20 301.014 300.838 299.46 4999.9 -4.92405 1.63513 2.00864e+20 0 0 0 0 0 
100353 0 20.8256 1.98869e+20 301.991 298.898 296.042 5001.78 0.263192 -1.66781 1.98869e+20 0 0 0 0 0 
165889 0 20.7556 1.98201e+20 299.785 300.561 297.662 5000.85 0.167492 -0.852678 1.98201e+20 0 0 0 0 0 
231425 0 21.1111 2.01596e+20 301.452 301.021 299.681 4998.55 -0.377011 0.176638 2.01596e+20 0 0 0 0 0 
296961 0 21.08 2.01299e+20 301.36 302.716 300.065 4998.95 -1.87709 0.262362 2.01299e+20 0 0 0 0 0 
76801 0 20.9244 1.99814e+20 302.507 297.277 299.88 5000.08 -1.71831 2.26879 1.99814e+20 0 0 0 0 0 
142337 0 20.7967 1.98594e+20 300.607 300.656 299.269 5001.65 -0.484964 -2.13281 1.98594e+20 0 0 0 0 0 
207873 0 20.9978 2.00514e+20 298.971 296.666 298.501 4998.94 -1.3159 0.52556 2.00514e+20 0 0 0 0 0 
273409 0 21.0856 2.01352e+20 300.32 298.369 297.399 5000.4 -0.348496 3.75457 2.01352e+20 0 0 0 0 0 
84993 0 20.7756 1.98392e+20 302.663 297.498 296.662 5001.07 -1.11767 1.97276 1.98392e+20 0 0 0 0 0 
150529 0 21.0611 2.01119e+20 302.606 300.016 301.756 5000.38 0.573713 0.20312 2.01119e+20 0 0 0 0 0 
216065 0 20.8556 1.99156e+20 298.029 297.978 298.209 5002.39 -0.900996 2.65406 1.99156e+20 0 0 0 0 0 
281601 0 21.0678 2.01182e+20 297.139 298.762 297.665 4999.13 -0.461626 1.36202 2.01182e+20 0 0 0 0 0 
93185 0 21.0278 2.008e+20 298.825 299.194 298.69 5000.3 -0.712632 1.22471 2.008e+20 0 0 0 0 0 
158721 0 20.8989 1.9957e+20 297.72 296.994 298.384 5003.23 0.0150459 0.575513 1.9957e+20 0 0 0 0 0 
224257 0 20.9311 1.99877e+20 300.04 299.996 297.432 5000.41 2.54929 -0.513715 1.99877e+20 0 0 0 0 0 
289793 0 20.9422 1.99983e+20 299.645 298.879 298.049 5003.69 -2.50536 -0.325903 1.99983e+20 0 0 0 0 0 
101377 0 21.0656 2.01161e+20 299.064 297.831 297.251 5001.85 -0.679775 3.2478 2.01161e+20 0 0 0 0 0 
166913 0 20.8822 1.99411e+20 297.438 299.055 298.25 5001.7 1.91036 -0.510973 1.99411e+20 0 0 0 0 0 
232449 0 20.7656 1.98296e+20 300.233 298.545 297.159 5001.66 1.73171 0.921447 1.98296e+20 0 0 0 0 0 
297985 0 20.8633 1.9923e+20 299.976 301.75 298.749 5000.48 0.536835 -1.01071 1.9923e+20 0 0 0 0 0 
77825 0 20.7789 1.98424e+20 301.098 298.965 295.676 5002.11 0.521855 -0.443844 1.98424e+20 0 0 0 0 0 
143361 0 20.6189 1.96896e+20 299.928 299.417 297.609 5001.74 0.264151 1.92686 1.96896e+20 0 0 0 0 0 
208897 0 20.9711 2.00259e+20 299.165 297.18 296.781 5002.15 -3.79936 1.73985 2.00259e+20 0 0 0 0 0 
274433 0 20.7456 1.98105e+20 297.218 299.28 298.316 5000.99 -2.62515 1.7516 1.98105e+20 0 0 0 0 0 
86017 0 20.9844 2.00387e+20 303.528 299.652 300.517 4999.2 -0.805787 1.06392 2.00387e+20 0 0 0 0 0 
151553 0 20.7978 1.98604e+20 300.565 300.052 296.176 5000.51 -2.93207 1.39745 1.98604e+20 0 0 0 0 0 
217089 0 20.9944 2.00482e+20 299.375 296.805 297.814 5000.27 -0.65932 0.458248 2.00482e+20 0 0 0 0 0 
282625 0 20.8111 1.98731e+20 298.846 297.76 297.594 5001.98 -1.91937 -0.419807 1.98731e+20 0 0 0 0 0 
94209 0 20.9156 1.99729e+20 298.919 297.929 298.15 5003.6 0.125275 1.36128 1.99729e+20 0 0 0 0 0 
159745 0 20.9956 2.00493e+20 298.817 298.145 298.131 4999.93 2.78929 0.757469 2.00493e+20 0 0 0 0 0 
225281 0 20.8233 1.98848e+20 298.58 298.494 299.055 5001.53 0.0284074 0.207397 1.98848e+20 0 0 0 0 0 
290817 0 20.8633 1.9923e+20 298.474 301.644 296.66 5004.21 -0.128611 1.00597 1.9923e+20 0 0 0 0 0 
102401 0 20.9933 2.00472e+20 295.491 299.267 298.383 5001.31 -0.542765 0.966112 2.00472e+20 0 0 0 0 0 
167937 0 20.9111 1.99686e+20 298.733 301.442 296.479 5001.36 2.61307 0.126685 1.99686e+20 0 0 0 0 0 
233473 0 20.9133 1.99708e+20 297.533 304.206 298.599 5001.35 -3.04469 1.76179 1.99708e+20 0 0 0 0 0 
299009 0 20.7744 1.98381e+20 300.715 299.436 297.489 5001.31 -0.894472 -0.296042 1.98381e+20 0 0 0 0 0 
74757 0 20.8289 1.98901e+20 298.66 298.959 295.957 4998.59 -4.22623 0.028011 1.98901e+20 0 0 0 0 0 
140293 0 20.5044 1.95803e+20 296.4 292.535 296.777 5001.14 -0.677423 0.458679 1.95803e+20 0 0 0 0 0 
205829 0 20.9033 1.99612e+20 297.111 300.154 296.963 5000.04 -0.146015 1.24369 1.99612e+20 0 0 0 0 0 
271365 0 21.0689 2.01193e+20 297.634 297.377 298.871 4999.94 1.618 2.13026 2.01193e+20 0 0 0 0 0 
82949 0 20.7367 1.98021e+20 299.068 295.321 295.825 5002.52 -0.191594 -1.13367 1.98021e+20 0 0 0 0 0 
148485 0 20.69 1.97575e+20 302.317 294.428 295.593 5001.04 1.29601 -0.883332 1.97575e+20 0 0 0 0 0 
214021 0 20.8744 1.99336e+20 302.7 299.823 301.083 4999.43 0.301215 0.843283 1.99336e+20 0 0 0 0 0 
279557 0 20.9378 1.99941e+20 300.196 298.028 297.113 5002.43 0.335931 3.14449 1.99941e+20 0 0 0 0 0 
91141 0 21.3033 2.03432e+20 301.013 301.15 297.285 4997.64 4.97105 1.36248 2.03432e+20 0 0 0 0 0 
156677 0 21.1844 2.02297e+20 298.562 299.652 298.026 5000.32 6.20964 0.596142 2.02297e+20 0 0 0 0 0 
222213 0 20.8067 1.98689e+20 300.56 297.533 297.219 5003.26 5.00206 -0.296808 1.98689e+20 0 0 0 0 0 
287749 0 20.6244 1.96949e+20 300.57 300.756 298.998 5002.74 4.18029 -2.11128 1.96949e+20 0 0 0 0 0 
99333 0 21.0711 2.01214e+20 301.545 302.3 297.558 4998.67 4.72315 1.42111 2.01214e+20 0 0 0 0 0 
164869 0 21.1489 2.01957e+20 298.909 300.059 298.34 4998.42 3.88366 -1.15282 2.01957e+20 0 0 0 0 0 
230405 0 20.7433 1.98084e+20 301.689 299.242 298.084 5001.77 2.88324 0.312092 1.98084e+20 0 0 0 0 0 
295941 0 20.8433 1.99039e+20 302.057 300.624 296.984 5003.98 5.51456 -0.529166 1.99039e+20 0 0 0 0 0 
75781 0 20.4411 1.95198e+20 297.217 296.883 296.079 5000.42 0.0734661 -0.515199 1.95198e+20 0 0 0 0 0 
141317 0 20.6378 1.97076e+20 298.905 295.953 295.143 5004.08 2.2118 -2.24835 1.97076e+20 0 0 0 0 0 
206853 0 20.9033 1.99612e+20 300.106 297.542 300.6 4997.36 0.625351 1.89854 1.99612e+20 0 0 0 0 0 
272389 0 20.9356 1.9992e+20 301.342 297.9 298.488 4999.2 -0.0567185 4.55677 1.9992e+20 0 0 0 0 0 
83973 0 20.5033 1.95792e+20 300.435 293.305 296.439 4998.78 0.811979 -0.855547 1.95792e+20 0 0 0 0 0 
149509 0 20.5789 1.96514e+20 297.739 297.275 296.408 5005.1 0.285876 -3.88165 1.96514e+20 0 0 0 0 0 
215045 0 20.9089 1.99665e+20 300.563 299.512 296.854 4999.5 2.46406 2.80248 1.99665e+20 0 0 0 0 0 
280581 0 20.8922 1.99506e+20 299.5 299.425 299.457 4999.37 0.842364 3.70433 1.99506e+20 0 0 0 0 0 
92165 0 21.0233 2.00758e+20 299.75 300.252 296.632 4997.11 6.99265 1.08978 2.00758e+20 0 0 0 0 0 
157701 0 20.9456 2.00015e+20 299.263 301.86 297.142 4999.62 2.81446 -0.433893 2.00015e+20 0 0 0 0 0 
223237 0 20.7122 1.97787e+20 299.646 302.654 297.213 5001.31 4.21884 -3.31931 1.97787e+20 0 0 0 0 0 
288773 0 20.6589 1.97278e+20 300.608 300.464 297.758 5003.58 5.99226 0.763793 1.97278e+20 0 0 0 0 0 
100357 0 21 2.00535e+20 296.858 299.61 298.048 4996.31 4.40974 -2.38857 2.00535e+20 0 0 0 0 0 
165893 0 20.9689 2.00238e+20 300.264 302.279 298.202 4998.09 5.82934 -0.501268 2.00238e+20 0 0 0 0 0 
231429 0 20.7056 1.97723e+20 298.717 302.594 298.841 5004.01 2.06798 -3.92253 1.97723e+20 0 0 0 0 0 
296965 0 20.6878 1.97554e+20 302.399 301.455 296.92 5001.42 6.6044 -0.937857 1.97554e+20 0 0 0 0 0 
76805 0 20.9733 2.00281e+20 300.224 300.221 300.321 5000.45 2.77988 -1.01687 2.00281e+20 0 0 0 0 0 
142341 0 20.7367 1.98021e+20 300.287 304.099 298.743 5001.85 1.96104 2.29821 1.98021e+20 0 0 0 0 0 
207877 0 20.8667 1.99262e+20 300.688 302.363 298.545 5001.5 -1.33111 0.899357 1.99262e+20 0 0 0 0 0 
273413 0 20.6122 1.96832e+20 300.223 297.64 298.441 5000.39 -0.152608 -0.456106 1.96832e+20 0 0 0 0 0 
84997 0 20.7822 1.98456e+20 300.965 299.862 298.533 5003.52 1.04991 1.79674 1.98456e+20 0 0 0 0 0 
150533 0 20.8567 1.99166e+20 298.104 303.266 299.937 5001.32 3.55201 -0.0876911 1.99166e+20 0 0 0 0 0 
216069 0 20.84 1.99007e+20 299.976 300.281 298.684 5001.29 -2.46036 -0.298179 1.99007e+20 0 0 0 0 0 
281605 0 20.8 1.98625e+20 301.419 300.379 297.702 4997.73 1.37455 -2.04235 1.98625e+20 0 0 0 0 0 
93189 0 20.7678 1.98318e+20 301.834 294.986 299.589 5001.16 -1.26623 1.04429 1.98318e+20 0 0 0 0 0 
158725 0 20.7767 1.98403e+20 297.957 298.291 298.335 5001.78 -1.73343 1.89534 1.98403e+20 0 0 0 0 0 
224261 0 20.7811 1.98445e+20 301.908 300.656 296.891 5003.15 -0.225171 2.25881 1.98445e+20 0 0 0 0 0 
289797 0 20.6667 1.97352e+20 299.146 300.003 298.738 4998.38 0.92666 -0.863037 1.97352e+20 0 0 0 0 0 
101381 0 20.8133 1.98753e+20 302.121 294.109 299.429 5002.5 -1.74355 3.50626 1.98753e+20 0 0 0 0 0 
166917 0 20.6878 1.97554e+20 301.548 296.981 297.922 5002.2 -2.66106 1.48343 1.97554e+20 0 0 0 0 0 
232453 0 20.5656 1.96387e+20 299.499 298.641 296.885 5002.11 0.342082 -0.233058 1.96387e+20 0 0 0 0 0 
297989 0 20.5367 1.96111e+20 300.82 301.688 298.683 5002.28 1.49031 -1.32242 1.96111e+20 0 0 0 0 0 
77829 0 20.8144 1.98763e+20 301.41 302.375 299.092 5001.09 0.155815 0.458681 1.98763e+20 0 0 0 0 0 
143365 0 20.8622 1.9922e+20 299.539 299.363 299.323 5005.06 1.3332 1.18316 1.9922e+20 0 0 0 0 0 
208901 0 20.6556 1.97246e+20 300.786 298.821 298.864 5002.44 -2.12122 1.24417 1.97246e+20 0 0 0 0 0 
274437 0 20.8189 1.98806e+20 301.365 299.419 298.347 5001.55 0.733357 -1.69575 1.98806e+20 0 0 0 0 0 
86021 0 20.7578 1.98222e+20 300.34 303.203 298.595 4999.22 0.543228 1.62575 1.98222e+20 0 0 0 0 0 
151557 0 20.9822 2.00365e+20 302.751 300.761 299.165 5004.5 1.54126 0.841922 2.00365e+20 0 0 0 0 0 
217093 0 20.8244 1.98859e+20 301.821 297.608 299.287 4998.68 -0.941111 -0.701644 1.98859e+20 0 0 0 0 0 
282629 0 20.8822 1.99411e+20 301.547 302.203 297.311 5002.83 -0.638159 0.983379 1.99411e+20 0 0 0 0 0 
94213 0 20.8611 1.99209e+20 297.407 296.552 298.926 5000.9 -0.914018 1.36196 1.99209e+20 0 0 0 0 0 
159749 0 20.7233 1.97893e+20 301.336 297.078 298.227 5002.92 -1.46419 3.27544 1.97893e+20 0 0 0 0 0 
225285 0 20.7344 1.97999e+20 299.489 299.934 298.514 5001.77 0.890681 -0.469359 1.97999e+20 0 0 0 0 0 
290821 0 20.5167 1.9592e+20 302.178 298.923 297.784 5001.67 2.04252 0.853867 1.9592e+20 0 0 0 0 0 
102405 0 20.7767 1.98403e+20 299.075 297.733 299.051 5000.8 -2.05916 0.972359 1.98403e+20 0 0 0 0 0 
167941 0 20.5144 1.95899e+20 298.569 296.434 297.246 5001.05 -0.71467 0.896388 1.95899e+20 0 0 0 0 0 
233477 0 20.4689 1.95463e+20 299.526 297.255 297.425 5001.59 0.499062 -1.95532 1.95463e+20 0 0 0 0 0 
299013 0 20.7256 1.97914e+20 299.418 298.019 297.236 5002.42 -0.342615 -1.29667 1.97914e+20 0 0 0 0 0 
74761 0 25.8956 2.47284e+20 9093.17 2764.91 893.928 3990.3 4.41002 -7.33596 2.47284e+20 0 0 0 0 0 
140297 0 70.0422 6.68854e+20 14184.1 9316.97 4683.63 1472.77 -3.22721 22.838 6.68854e+20 0 0 0 0 0 
205833 0 25.3744 2.42308e+20 8943.78 2724.21 920.748 3996.04 5.14311 -5.55797 2.42308e+20 0 0 0 0 0 
271369 0 69.6478 6.65087e+20 14156.3 9339.91 4696.38 1451.59 1.0525 3.11055 6.65087e+20 0 0 0 0 0 
82953 0 135.629 1.29516e+21 12036.5 10182.6 8345.93 748.119 1.8177 12.7179 1.29516e+21 0 0 0 0 0 
148489 0 168.396 1.60806e+21 11354.5 10166 9508.25 585.138 7.15383 -0.691241 1.60806e+21 0 0 0 0 0 
214025 0 135.022 1.28937e+21 11983.7 10111.4 8341.66 732.76 14.2965 4.77732 1.28937e+21 0 0 0 0 0 
279561 0 167.903 1.60336e+21 11357.6 10205.8 9517.54 569.444 6.87933 2.88323 1.60336e+21 0 0 0 0 0 
91145 0 25.0933 2.39624e+20 8865.7 2664.17 855.295 4006.2 9.42675 1.74955 2.39624e+20 0 0 0 0 0 
156681 0 70.2456 6.70796e+20 14179.5 9388.65 4768.37 1421.33 6.13985 2.56437 6.70796e+20 0 0 0 0 0 
222217 0 25.4778 2.43295e+20 8379.21 2546.62 812.521 4082.81 1.19498 1.08861 2.43295e+20 0 0 0 0 0 
287753 0 71.7244 6.84918e+20 14117.8 9266.68 4728.17 1455.13 13.6325 20.1551 6.84918e+20 0 0 0 0 0 
99337 0 134.497 1.28435e+21 11995.4 10138.4 8354.09 734.65 9.1728 13.2156 1.28435e+21 0 0 0 0 0 
164873 0 168.403 1.60813e+21 11366.1 10215.7 9524.67 571.397 17.8555 2.82452 1.60813e+21 0 0 0 0 0 
230409 0 136.239 1.30099e+21 12026.5 10091.6 8351.79 745.874 18.7107 6.104 1.30099e+21 0 0 0 0 0 
295945 0 170.721 1.63027e+21 11376.5 10241.8 9516.72 581.064 27.4349 -1.71902 1.63027e+21 0 0 0 0 0 
75785 0 182.843 1.74603e+21 11088.2 10305.5 9862.81 514.823 4.11464 3.64539 1.74603e+21 0 0 0 0 0 
141321 0 191.358 1.82733e+21 11016.3 10340.9 10084.9 458.307 11.3915 15.736 1.82733e+21 0 0 0 0 0 
206857 0 183.662 1.75385e+21 11123.7 10348.6 9952.64 497.257 16.0074 11.8059 1.75385e+21 0 0 0 0 0 
272393 0 194.04 1.85295e+21 10998.1 10349.4 10102.2 445.942 21.0718 6.78802 1.85295e+21 0 0 0 0 0 
83977 0 202.923 1.93778e+21 10882 10422.5 10089.7 395.904 14.366 8.31199 1.93778e+21 0 0 0 0 0 
149513 0 213.148 2.03541e+21 10688.9 10481 10181.8 343.723 5.18556 -0.287352 2.03541e+21 0 0 0 0 0 
215049 0 207.903 1.98533e+21 10855.1 10443.3 10173.1 383.997 17.0459 1.517 1.98533e+21 0 0 0 0 0 
280585 0 217.187 2.07398e+21 10684.7 10407.6 10164.4 341.2 20.6362 2.38243 2.07398e+21 0 0 0 0 0 
92169 0 186.908 1.78484e+21 11099 10353.3 9955.41 485.735 30.3521 9.12667 1.78484e+21 0 0 0 0 0 
157705 0 197.277 1.88385e+21 11012.9 10389.8 10120.1 427.821 33.628 1.16168 1.88385e+21 0 0 0 0 0 
223241 0 186.408 1.78006e+21 11109.8 10332.4 9981.02 500.14 36.6149 -6.00872 1.78006e+21 0 0 0 0 0 
288777 0 196.523 1.87666e+21 11054.6 10385.8 10164.9 450.769 40.4244 1.40037 1.87666e+21 0 0 0 0 0 
100361 0 207.379 1.98032e+21 10872.5 10428.5 10167.8 375.613 24.5646 3.08106 1.98032e+21 0 0 0 0 0 
165897 0 215.77 2.06045e+21 10713.3 10504.3 10208.1 332.297 30.6649 11.1405 2.06045e+21 0 0 0 0 0 
231433 0 207.293 1.97951e+21 10864.4 10481.2 10197.5 387.32 42.3173 0.58885 1.97951e+21 0 0 0 0 0 
296969 0 218.949 2.09081e+21 10732.6 10472.5 10259.5 333.572 41.6653 -2.21961 2.09081e+21 0 0 0 0 0 
76809 0 25.8511 2.4686e+20 8733.23 2584.96 817.116 4035.4 -8.16608 -13.1254 2.4686e+20 0 0 0 0 0 
142345 0 70.6633 6.74785e+20 14223.7 9373.93 4684.67 1466.51 12.5408 -3.40415 6.74785e+20 0 0 0 0 0 
207881 0 25.6911 2.45332e+20 9040.04 2849.63 852.142 3992.78 2.04718 -1.41643 2.45332e+20 0 0 0 0 0 
273417 0 71.0122 6.78117e+20 14179.8 9391.59 4776.87 1443.59 17.6946 -8.67546 6.78117e+20 0 0 0 0 0 
85001 0 135.797 1.29676e+21 12049.3 10094.6 8375.59 749.517 24.754 -1.71957 1.29676e+21 0 0 0 0 0 
150537 0 168.576 1.60978e+21 11420.4 10223.5 9549.86 578.654 35.9292 -5.41478 1.60978e+21 0 0 0 0 0 
216073 0 135.817 1.29695e+21 12082.1 10208.4 8514.78 729.646 39.7208 -0.850153 1.29695e+21 0 0 0 0 0 
281609 0 167.566 1.60013e+21 11430.7 10306.3 9611.84 559.843 51.8989 -10.1247 1.60013e+21 0 0 0 0 0 
93193 0 25.7833 2.46213e+20 9080.75 2799.27 864.065 3973.13 -1.86827 -4.6143 2.46213e+20 0 0 0 0 0 
158729 0 69.9189 6.67676e+20 14260.3 9388.57 4760.83 1444.07 31.8579 -8.10802 6.67676e+20 0 0 0 0 0 
224265 0 25.8289 2.46648e+20 9440.44 2925.7 881.068 3931.27 9.60892 6.64367 2.46648e+20 0 0 0 0 0 
289801 0 70.2711 6.7104e+20 14184.3 9343.52 4795.24 1440.24 41.4158 1.71033 6.7104e+20 0 0 0 0 0 
101385 0 132.46 1.2649e+21 12131.7 10235.5 8468.02 736.846 51.5034 -2.21531 1.2649e+21 0 0 0 0 0 
166921 0 166.268 1.58774e+21 11455.4 10292.2 9643.38 548.942 63.0742 1.27983 1.58774e+21 0 0 0 0 0 
232457 0 135.099 1.2901e+21 12130.6 10218.8 8456.63 726.88 66.022 5.18712 1.2901e+21 0 0 0 0 0 
297993 0 166.978 1.59452e+21 11471.4 10240.3 9625.77 561.077 77.5319 7.26174 1.59452e+21 0 0 0 0 0 
77833 0 185.54 1.77178e+21 11200.4 10359.7 9961.72 494.248 49.0539 -20.232 1.77178e+21 0 0 0 0 0 
143369 0 198.273 1.89337e+21 11063.7 10391.1 10174.8 434.084 53.2462 -4.98774 1.89337e+21 0 0 0 0 0 
208905 0 185.876 1.77498e+21 11174.7 10389.4 9961.61 481.682 56.4949 -18.8193 1.77498e+21 0 0 0 0 0 
274441 0 197.632 1.88725e+21 11042.7 10405.7 10142.9 426.708 63.9832 -14.47 1.88725e+21 0 0 0 0 0 
86025 0 207.079 1.97746e+21 10852.8 10506.4 10191 383.645 54.8597 13.6188 1.97746e+21 0 0 0 0 0 
151561 0 218.701 2.08844e+21 10682.7 10441.1 10275.2 328.898 55.6091 0.222136 2.08844e+21 0 0 0 0 0 
217097 0 209.614 2.00167e+21 10912 10542.8 10216.9 369.892 64.8947 0.0101668 2.00167e+21 0 0 0 0 0 
282633 0 219.526 2.09631e+21 10706.8 10501.9 10341.2 323.415 70.3929 -1.67709 2.09631e+21 0 0 0 0 0 
94217 0 183.46 1.75191e+21 11203.2 10396.8 10062.6 471.292 67.7157 -1.52273 1.75191e+21 0 0 0 0 0 
159753 0 195.596 1.8678e+21 11043.1 10378.6 10130.9 414.797 74.3436 -16.7334 1.8678e+21 0 0 0 0 0 
225289 0 184.13 1.75831e+21 11242.9 10386.6 9997.62 477.484 78.2616 -7.39223 1.75831e+21 0 0 0 0 0 
290825 0 197.101 1.88218e+21 11035.6 10388.6 10102.5 414.121 83.7289 1.42859 1.88218e+21 0 0 0 0 0 
102409 0 206.91 1.97584e+21 10869 10509.6 10166.2 359.278 79.8074 2.5289 1.97584e+21 0 0 0 0 0 
167945 0 218.762 2.08903e+21 10728.5 10580.4 10339.4 305.751 80.9367 -6.88601 2.08903e+21 0 0 0 0 0 
233481 0 211.788 2.02242e+21 10806.8 10429.5 10163.1 349.803 95.5099 -2.95337 2.02242e+21 0 0 0 0 0 
299017 0 220.692 2.10746e+21 10694.7 10482.4 10319.1 302.89 94.2619 -7.694 2.10746e+21 0 0 0 0 0 
74785 0 20.8867 1.99453e+20 297.944 297.839 298.946 5000.47 4.16535 0.755168 1.99453e+20 0 0 0 0 0 
140321 0 20.8544 1.99145e+20 302.194 300.082 297.863 4999.57 -0.903893 0.898252 1.99145e+20 0 0 0 0 0 
205857 0 20.9789 2.00334e+20 299.192 301.834 298.375 5000.51 -0.768782 0.351476 2.00334e+20 0 0 0 0 0 
271393 0 20.8867 1.99453e+20 300.425 300.634 297.983 5002.35 -1.94678 -0.298955 1.99453e+20 0 0 0 0 0 
82977 0 20.8356 1.98965e+20 299.197 297.404 299.599 5000.12 1.14694 0.0863914 1.98965e+20 0 0 0 0 0 
148513 0 20.7133 1.97798e+20 300.715 297.293 298.232 4999.18 2.47605 -0.0288811 1.97798e+20 0 0 0 0 0 
214049 0 20.9922 2.00461e+20 301.17 303.019 297.3 5002.14 0.7625 1.0555 2.00461e+20 0 0 0 0 0 
279585 0 20.9656 2.00206e+20 301.506 299.809 297.624 5000.02 -1.88042 -2.50452 2.00206e+20 0 0 0 0 0 
91169 0 20.9744 2.00291e+20 300.157 295.94 297.878 5001.27 -2.11941 -2.76093 2.00291e+20 0 0 0 0 0 
156705 0 20.7656 1.98296e+20 299.72 301.043 297.537 5001.94 -2.10664 0.275004 1.98296e+20 0 0 0 0 0 
222241 0 20.6678 1.97363e+20 302.327 303.446 296.886 5001.33 -0.267495 -0.580904 1.97363e+20 0 0 0 0 0 
287777 0 20.86 1.99198e+20 302.183 301.223 296.552 5000.83 -0.314202 -1.32782 1.99198e+20 0 0 0 0 0 
99361 0 20.9556 2.00111e+20 300.587 300.489 297.76 4999.85 -3.32602 -3.48093 2.00111e+20 0 0 0 0 0 
164897 0 20.82 1.98816e+20 300.976 297.294 296.527 4999.58 -2.98198 1.79185 1.98816e+20 0 0 0 0 0 
230433 0 20.8733 1.99326e+20 300.242 299.343 295.72 4999.21 0.127548 2.20641 1.99326e+20 0 0 0 0 0 
295969 0 20.6689 1.97373e+20 298.78 301.308 296.668 5000.67 1.55823 -1.21826 1.97373e+20 0 0 0 0 0 
75809 0 20.8822 1.99411e+20 299.103 297.687 297.216 5001.68 -2.01324 -0.585835 1.99411e+20 0 0 0 0 0 
141345 0 20.8411 1.99018e+20 299.177 298.081 299.446 4998.42 2.23404 -0.481724 1.99018e+20 0 0 0 0 0 
206881 0 20.9478 2.00037e+20 303.299 300.588 296.891 5003.76 3.05903 0.18301 2.00037e+20 0 0 0 0 0 
272417 0 20.88 1.99389e+20 301.834 300.657 298.631 4999.11 -0.294871 -2.17789 1.99389e+20 0 0 0 0 0 
84001 0 20.7844 1.98477e+20 298.401 296.733 298.539 5001.13 -0.896462 0.251799 1.98477e+20 0 0 0 0 0 
149537 0 20.8367 1.98976e+20 299.813 294.301 298.442 5000.92 -1.18409 -1.25338 1.98976e+20 0 0 0 0 0 
215073 0 20.8833 1.99421e+20 300.768 299.169 298.047 5001.51 2.02629 -0.943295 1.99421e+20 0 0 0 0 0 
280609 0 20.8322 1.98933e+20 299.123 302.562 297.12 5002.58 2.49966 0.172182 1.98933e+20 0 0 0 0 0 
92193 0 20.7589 1.98233e+20 300.664 300.518 298.682 5001.73 -1.90093 -0.654694 1.98233e+20 0 0 0 0 0 
157729 0 21.0133 2.00663e+20 303.037 296.669 296.146 5001.23 -4.07206 -2.81698 2.00663e+20 0 0 0 0 0 
223265 0 20.8078 1.987e+20 301.215 300.647 296.372 4999.9 -0.423519 0.751674 1.987e+20 0 0 0 0 0 
288801 0 20.7467 1.98116e+20 299.55 300.315 295.785 5000.15 0.763022 0.550354 1.98116e+20 0 0 0 0 0 
100385 0 20.6356 1.97055e+20 303.171 299.732 297.39 5000.45 -4.31914 2.24386 1.97055e+20 0 0 0 0 0 
165921 0 20.8867 1.99453e+20 302.238 298.523 298.009 5002.81 -2.76216 0.702947 1.99453e+20 0 0 0 0 0 
231457 0 20.7967 1.98594e+20 300.732 301.404 297.061 4999.14 -0.701246 -0.706814 1.98594e+20 0 0 0 0 0 
296993 0 20.7211 1.97872e+20 300.807 297.777 294.932 5002.01 -1.18824 1.15907 1.97872e+20 0 0 0 0 0 
76833 0 20.79 1.9853e+20 296.936 302.339 298.078 4999.72 -2.7807 1.29208 1.9853e+20 0 0 0 0 0 
142369 0 20.9078 1.99655e+20 297.996 300.306 298.93 5000.38 -1.26151 -0.33947 1.99655e+20 0 0 0 0 0 
207905 0 20.9311 1.99877e+20 302.199 300.848 297.6 5001.63 -2.01209 2.38149 1.99877e+20 0 0 0 0 0 
273441 0 20.9089 1.99665e+20 298.587 302.533 298.266 5003.15 -3.17396 2.43691 1.99665e+20 0 0 0 0 0 
85025 0 20.73 1.97957e+20 299.823 297.44 298.013 5000.07 -0.111516 0.227273 1.97957e+20 0 0 0 0 0 
150561 0 20.9478 2.00037e+20 299.972 301.409 298.322 5001.7 -0.793333 -0.418161 2.00037e+20 0 0 0 0 0 
216097 0 20.6867 1.97543e+20 300.321 301.96 295.997 5001.43 -1.94087 2.3672 1.97543e+20 0 0 0 0 0 
281633 0 20.9011 1.99591e+20 300.604 299.138 297.242 5000.54 -0.879747 2.56584 1.99591e+20 0 0 0 0 0 
93217 0 20.9556 2.00111e+20 298.693 297.325 297.42 4999.75 1.62177 0.422062 2.00111e+20 0 0 0 0 0 
158753 0 20.9656 2.00206e+20 299.282 300.538 297.433 5002.83 0.25073 0.764077 2.00206e+20 0 0 0 0 0 
224289 0 20.7411 1.98063e+20 298.884 302.511 297.804 5002.99 -1.8952 1.09762 1.98063e+20 0 0 0 0 0 
289825 0 20.7544 1.9819e+20 299.35 302.271 297.239 5002.84 1.7127 2.76024 1.9819e+20 0 0 0 0 0 
101409 0 20.9367 1.9993e+20 298.033 298.777 298.358 5001 0.870496 2.74573 1.9993e+20 0 0 0 0 0 
166945 0 20.9156 1.99729e+20 300.054 301.547 297.274 5002.56 -0.806987 -1.4745 1.99729e+20 0 0 0 0 0 
232481 0 20.5744 1.96471e+20 300.271 299.549 297.465 5002.26 -0.763817 1.12599 1.96471e+20 0 0 0 0 0 
298017 0 20.8367 1.98976e+20 300.932 301.473 298.705 5003 -3.45848 1.69307 1.98976e+20 0 0 0 0 0 
77857 0 21.0856 2.01352e+20 300.513 300.317 300.006 5000.63 -0.154158 -1.02047 2.01352e+20 0 0 0 0 0 
143393 0 20.9756 2.00302e+20 299.763 300.883 297.282 5000.88 -0.220706 0.718258 2.00302e+20 0 0 0 0 0 
208929 0 20.64 1.97097e+20 299.688 301.126 298.915 5000.06 -1.30795 4.77587 1.97097e+20 0 0 0 0 0 
274465 0 20.6633 1.9732e+20 300.162 300.717 295.749 4999.78 0.840594 -0.249491 1.9732e+20 0 0 0 0 0 
86049 0 20.9533 2.0009e+20 297.574 301.226 299.029 5001.98 -1.09552 -0.529065 2.0009e+20 0 0 0 0 0 
151585 0 20.95 2.00058e+20 300.593 302.545 298.74 5001.74 0.682083 0.383138 2.00058e+20 0 0 0 0 0 
217121 0 20.6567 1.97257e+20 300.533 297.67 297.6 5001.24 -2.15474 4.09477 1.97257e+20 0 0 0 0 0 
282657 0 20.54 1.96143e+20 298.029 300.605 297.008 4999.95 -0.582269 2.0706 1.96143e+20 0 0 0 0 0 
94241 0 20.9822 2.00365e+20 300.061 298.451 297.44 5003.52 0.761372 2.35022 2.00365e+20 0 0 0 0 0 
159777 0 20.9133 1.99708e+20 298.087 301.585 297.495 5002.42 -0.876407 1.30054 1.99708e+20 0 0 0 0 0 
225313 0 20.7189 1.97851e+20 301.181 298.474 296.816 5002.77 1.12417 2.21177 1.97851e+20 0 0 0 0 0 
290849 0 20.8944 1.99527e+20 300.964 301.764 297.482 5003.3 0.300831 -0.220221 1.99527e+20 0 0 0 0 0 
102433 0 20.98 2.00344e+20 297.302 301.81 299.439 5000.79 2.08949 -1.21571 2.00344e+20 0 0 0 0 0 
167969 0 20.9644 2.00196e+20 298.691 301.755 298.512 5002.93 -1.93106 1.9061 2.00196e+20 0 0 0 0 0 
233505 0 20.9244 1.99814e+20 301.343 302.486 298.195 5001.85 0.293708 2.80701 1.99814e+20 0 0 0 0 0 
299041 0 20.6267 1.9697e+20 302.572 299.376 298.426 5001.66 -0.961202 0.534406 1.9697e+20 0 0 0 0 0 
74789 0 20.79 1.9853e+20 297.373 299.622 298.168 5001.44 -0.612772 -1.95811 1.9853e+20 0 0 0 0 0 
140325 0 20.5689 1.96418e+20 299.511 300.159 299.828 5003.52 -1.15047 -0.705234 1.96418e+20 0 0 0 0 0 
205861 0 20.8911 1.99495e+20 302.619 301.258 298.808 5000.45 -1.88614 1.58592 1.99495e+20 0 0 0 0 0 
271397 0 20.8411 1.99018e+20 302.47 300.682 298.215 4998.85 -1.08385 0.913513 1.99018e+20 0 0 0 0 0 
82981 0 20.7489 1.98137e+20 298.639 300.768 298.89 5001.54 -1.02488 -0.957584 1.98137e+20 0 0 0 0 0 
148517 0 20.5878 1.96599e+20 298.647 301.475 298.748 5002.73 -3.0234 0.570519 1.96599e+20 0 0 0 0 0 
214053 0 20.74 1.98052e+20 300.36 302.311 298.013 5002.08 -1.065 -2.47566 1.98052e+20 0 0 0 0 0 
279589 0 20.6978 1.97649e+20 301.327 299.939 297.899 4999.12 -0.830918 1.64566 1.97649e+20 0 0 0 0 0 
91173 0 20.5789 1.96514e+20 301.933 297.672 298.218 4999.84 1.68347 -0.81329 1.96514e+20 0 0 0 0 0 
156709 0 20.64 1.97097e+20 302.072 296.852 297.066 5003.19 3.51225 0.966046 1.97097e+20 0 0 0 0 0 
222245 0 20.4156 1.94954e+20 296.501 300.329 296.274 5002.22 -1.81854 4.61208 1.94954e+20 0 0 0 0 0 
287781 0 20.4378 1.95166e+20 297.786 297.765 297.836 5000.52 -1.31024 3.36319 1.95166e+20 0 0 0 0 0 
99365 0 20.75 1.98148e+20 302.541 298.868 296.911 4999.21 -2.40544 -3.08828 1.98148e+20 0 0 0 0 0 
164901 0 20.5256 1.96005e+20 305.468 297.631 298.043 5001.29 3.82153 -1.06907 1.96005e+20 0 0 0 0 0 
230437 0 20.3367 1.94201e+20 297.234 297.289 296.864 5001.93 -2.75847 3.03104 1.94201e+20 0 0 0 0 0 
295973 0 20.3711 1.9453e+20 298.413 298.642 297.439 5002.14 -0.161114 3.2202 1.9453e+20 0 0 0 0 0 
75813 0 20.7511 1.98159e+20 298.995 297.536 298.443 5002.29 0.487069 -0.663628 1.98159e+20 0 0 0 0 0 
141349 0 20.6067 1.96779e+20 300.643 300.406 297.931 5002.43 -0.753245 0.562673 1.96779e+20 0 0 0 0 0 
206885 0 20.6911 1.97586e+20 302.471 302.524 298.636 4999.93 -2.802 -1.0208 1.97586e+20 0 0 0 0 0 
272421 0 20.8644 1.99241e+20 301.14 299.894 298.733 5001.49 -1.21181 -1.38809 1.99241e+20 0 0 0 0 0 
84005 0 20.4611 1.95389e+20 300.648 298.295 297.155 5003.57 -0.367874 1.0462 1.95389e+20 0 0 0 0 0 
149541 0 20.9222 1.99793e+20 299.5 299.168 297.68 5000.36 -1.19719 -1.95211 1.99793e+20 0 0 0 0 0 
215077 0 20.5 1.95761e+20 300.757 303.894 298.645 4999.83 -3.08678 -3.76188 1.95761e+20 0 0 0 0 0 
280613 0 20.6156 1.96864e+20 300.962 302.163 298.372 5001.23 -1.26721 0.42688 1.96864e+20 0 0 0 0 0 
92197 0 20.6344 1.97044e+20 299.77 298.822 297.503 5003.33 4.06201 1.92873 1.97044e+20 0 0 0 0 0 
157733 0 20.7489 1.98137e+20 303.963 299.327 297.948 5000.11 0.513138 -1.88107 1.98137e+20 0 0 0 0 0 
223269 0 20.5678 1.96408e+20 298.257 294.449 295.883 5003.38 -2.78754 2.5922 1.96408e+20 0 0 0 0 0 
288805 0 20.3433 1.94265e+20 297.738 296.751 296.834 5001.89 -2.70352 4.52403 1.94265e+20 0 0 0 0 0 
100389 0 20.7556 1.98201e+20 300.688 298.195 297.755 4999.72 3.39709 1.84506 1.98201e+20 0 0 0 0 0 
165925 0 20.87 1.99294e+20 302.517 299.005 297.64 5001.45 4.08118 1.17818 1.99294e+20 0 0 0 0 0 
231461 0 20.5422 1.96164e+20 298.545 293.602 295.919 5001.33 1.71568 3.23461 1.96164e+20 0 0 0 0 0 
296997 0 20.29 1.93755e+20 298.259 296.458 296.748 5001.52 -4.86714 0.329725 1.93755e+20 0 0 0 0 0 
76837 0 20.5678 1.96408e+20 300.369 298.474 297.955 4999.69 -1.31279 2.17303 1.96408e+20 0 0 0 0 0 
142373 0 20.5733 1.96461e+20 298.914 297.809 298.031 5003.51 0.490017 0.0653402 1.96461e+20 0 0 0 0 0 
207909 0 20.7033 1.97702e+20 300.6 301.721 299.146 5001.6 0.87733 1.42723 1.97702e+20 0 0 0 0 0 
273445 0 20.7011 1.97681e+20 301.641 302.102 298.369 4996.95 -0.898253 -3.00905 1.97681e+20 0 0 0 0 0 
85029 0 20.39 1.9471e+20 298.356 296.198 301.145 5000 -2.18744 1.02343 1.9471e+20 0 0 0 0 0 
150565 0 20.5044 1.95803e+20 297.387 302.486 298.077 4999.96 -1.70353 1.71646 1.95803e+20 0 0 0 0 0 
216101 0 20.7767 1.98403e+20 299.801 300.273 300.216 4997.62 0.651384 2.73474 1.98403e+20 0 0 0 0 0 
281637 0 20.77 1.98339e+20 300.47 300.805 298.116 5000.4 0.709162 0.649892 1.98339e+20 0 0 0 0 0 