ITEM: TIMESTEP
18000
ITEM: NUMBER OF CELLS
26430
ITEM: BOX BOUNDS oo ao pp
-2.5 5
0 5
-0.0005 0.0005
ITEM: CELLS id proc f_avg_n f_avg_nrho f_avg_temp_tra f_avg_temp_rot f_avg_temp_vib f_avg_vel[1] f_avg_vel[2] f_avg_vel[3] f_avg_nrho_CO2 f_avg_nrho_O2 f_avg_nrho_C2 f_avg_nrho_CO f_avg_nrho_O f_avg_nrho_C 
74753 0 21.494 2.05253e+20 301.398 298.451 298.669 5004.31 19.3591 3.06482 2.05253e+20 0 0 0 0 0 
140289 0 22.072 2.10772e+20 304.126 298.757 300.425 4997.96 36.6865 -1.79753 2.10772e+20 0 0 0 0 0 
205825 0 20.952 2.00077e+20 299.901 300.392 299.215 4997.03 2.37769 1.34728 2.00077e+20 0 0 0 0 0 
271361 0 20.856 1.9916e+20 303.532 302.006 298.598 4994.17 0.772667 0.651288 1.9916e+20 0 0 0 0 0 
82945 0 23.094 2.20531e+20 301.114 296.734 299.34 5000.54 46.5953 1.8946 2.20531e+20 0 0 0 0 0 
148481 0 22.94 2.19061e+20 303.382 301.578 300.748 5000.08 53.5088 0.941446 2.19061e+20 0 0 0 0 0 
214017 0 20.706 1.97728e+20 300.595 302.098 300.607 4995.76 1.79313 -1.05892 1.97728e+20 0 0 0 0 0 
279553 0 20.996 2.00497e+20 303.321 302.028 297.755 4996.95 2.25226 1.37491 2.00497e+20 0 0 0 0 0 
91137 0 20.912 1.99695e+20 299.214 304.722 299.491 5002.04 3.10775 0.894093 1.99695e+20 0 0 0 0 0 
156673 0 20.778 1.98415e+20 302.484 299.448 300.243 5000.54 6.22097 1.64813 1.98415e+20 0 0 0 0 0 
222209 0 21.008 2.00612e+20 303.919 303.98 299.678 4998.24 -4.31376 -1.23457 2.00612e+20 0 0 0 0 0 
287745 0 20.95 2.00058e+20 302.002 300.742 298.311 4996.71 -3.86671 -0.962144 2.00058e+20 0 0 0 0 0 
99329 0 20.844 1.99046e+20 300.915 305.977 298.854 5000.34 -0.290192 1.50464 1.99046e+20 0 0 0 0 0 
164865 0 20.888 1.99466e+20 303.366 304.029 299.113 5002.24 2.72277 -0.717899 1.99466e+20 0 0 0 0 0 
230401 0 21.03 2.00822e+20 296.896 302.749 301.279 4999.47 -2.72542 0.237377 2.00822e+20 0 0 0 0 0 
295937 0 20.692 1.97594e+20 302.253 303.262 299.072 4996.09 -4.77851 0.569477 1.97594e+20 0 0 0 0 0 
75777 0 23.446 2.23893e+20 300.206 299.59 299.361 4999.78 51.9631 -0.54662 2.23893e+20 0 0 0 0 0 
141313 0 23.602 2.25382e+20 300.824 302.593 302.409 4997.67 55.5514 0.344679 2.25382e+20 0 0 0 0 0 
206849 0 20.774 1.98377e+20 300.056 302.297 298.496 4996.48 3.38494 1.00578 1.98377e+20 0 0 0 0 0 
272385 0 21.234 2.0277e+20 304.012 300.205 299.075 4995.15 6.93636 1.04987 2.0277e+20 0 0 0 0 0 
83969 0 23.612 2.25478e+20 298.847 299.324 300.052 4998.78 52.2643 0.244821 2.25478e+20 0 0 0 0 0 
149505 0 23.448 2.23912e+20 297.421 299.548 300.447 5001.09 50.1525 -3.11845 2.23912e+20 0 0 0 0 0 
215041 0 20.75 1.98148e+20 304.826 301.72 297.175 4997.61 7.02223 4.54677 1.98148e+20 0 0 0 0 0 
280577 0 21.1 2.0149e+20 300.742 298.706 301.006 4996.24 8.21887 0.565175 2.0149e+20 0 0 0 0 0 
92161 0 20.698 1.97651e+20 300.757 301.034 300.028 5002.51 0.187366 2.83577 1.97651e+20 0 0 0 0 0 
157697 0 20.772 1.98358e+20 302.544 305.317 301.615 5002.02 -0.215405 0.0711929 1.98358e+20 0 0 0 0 0 
223233 0 21.062 2.01127e+20 300.002 302.452 299.513 4998.88 -0.829162 -0.868113 2.01127e+20 0 0 0 0 0 
288769 0 20.984 2.00382e+20 300.574 303.639 300.357 4998.36 -4.47321 0.690652 2.00382e+20 0 0 0 0 0 
100353 0 20.87 1.99294e+20 304.892 302.321 297.972 5001.67 0.415632 -1.37416 1.99294e+20 0 0 0 0 0 
165889 0 20.684 1.97518e+20 301.668 301.934 298.995 5002.3 1.16711 -2.93748 1.97518e+20 0 0 0 0 0 
231425 0 20.972 2.00268e+20 301.1 302.678 299.321 4997.38 0.355986 -1.67942 2.00268e+20 0 0 0 0 0 
296961 0 20.952 2.00077e+20 301.001 304.659 300.48 4999.36 -1.42245 0.991614 2.00077e+20 0 0 0 0 0 
76801 0 20.942 1.99981e+20 302.959 295.648 302.693 4999.68 -0.151961 0.113424 1.99981e+20 0 0 0 0 0 
142337 0 20.826 1.98874e+20 300.274 299.685 299.079 5001.44 2.63497 -2.30393 1.98874e+20 0 0 0 0 0 
207873 0 20.976 2.00306e+20 299.684 296.915 300.719 4999.46 -0.523291 1.0144 2.00306e+20 0 0 0 0 0 
273409 0 21.178 2.02235e+20 297.935 299.112 299.058 5000.62 0.604153 5.50387 2.02235e+20 0 0 0 0 0 
84993 0 20.796 1.98587e+20 303.465 296.561 298.288 5000.82 1.18756 0.286402 1.98587e+20 0 0 0 0 0 
150529 0 21.096 2.01452e+20 303.793 296.921 303.775 4999.69 1.84232 -1.10469 2.01452e+20 0 0 0 0 0 
216065 0 20.756 1.98205e+20 298.27 298.562 299.148 5002.59 -1.58686 2.48897 1.98205e+20 0 0 0 0 0 
281601 0 21.096 2.01452e+20 298.215 299.298 298.408 4998.68 1.88016 0.374392 2.01452e+20 0 0 0 0 0 
93185 0 21.048 2.00994e+20 298.155 298.43 297.849 4999.48 -0.934271 0.976941 2.00994e+20 0 0 0 0 0 
158721 0 20.83 1.98912e+20 299.887 299.623 299.666 5003.66 3.1607 -0.943154 1.98912e+20 0 0 0 0 0 
224257 0 20.86 1.99198e+20 297.893 300.087 296.681 5002.38 0.013018 -1.38068 1.99198e+20 0 0 0 0 0 
289793 0 20.994 2.00478e+20 299.74 297.743 297.752 5004.8 -2.03282 -2.00849 2.00478e+20 0 0 0 0 0 
101377 0 21.048 2.00994e+20 299.461 296.676 297.084 5002.14 -1.12799 5.31998 2.00994e+20 0 0 0 0 0 
166913 0 20.792 1.98549e+20 299.765 296.107 298.14 5000.71 3.45213 -2.51172 1.98549e+20 0 0 0 0 0 
232449 0 20.772 1.98358e+20 300.189 296.677 298.339 5006.21 -1.36367 -0.134563 1.98358e+20 0 0 0 0 0 
297985 0 20.904 1.99618e+20 298.732 300.241 297.751 5000.86 -0.993377 0.858369 1.99618e+20 0 0 0 0 0 
77825 0 20.66 1.97288e+20 301.024 300.212 295.536 5001 2.77814 -1.67543 1.97288e+20 0 0 0 0 0 
143361 0 20.538 1.96123e+20 302.019 297.062 299.837 5001.18 0.441466 1.34535 1.96123e+20 0 0 0 0 0 
208897 0 20.992 2.00459e+20 301.922 298.536 297.311 5002.29 -2.72298 4.50278 2.00459e+20 0 0 0 0 0 
274433 0 20.614 1.96849e+20 297.571 301.22 297.73 5000.89 -2.34386 2.76361 1.96849e+20 0 0 0 0 0 
86017 0 21.046 2.00974e+20 302.991 299.054 301.807 4997.85 0.631589 0.96132 2.00974e+20 0 0 0 0 0 
151553 0 20.766 1.98301e+20 300.876 298.849 296.852 4998.97 -3.17135 -0.419292 1.98301e+20 0 0 0 0 0 
217089 0 20.87 1.99294e+20 303.051 297.296 297.762 5000.2 3.81137 0.641759 1.99294e+20 0 0 0 0 0 
282625 0 20.684 1.97518e+20 300.173 297.674 296.783 5001.81 0.635518 2.41111 1.97518e+20 0 0 0 0 0 
94209 0 20.924 1.99809e+20 300.365 299.049 298.664 5003.99 1.17196 2.22829 1.99809e+20 0 0 0 0 0 
159745 0 20.954 2.00096e+20 299.05 296.601 298.751 4998.56 4.52031 0.316502 2.00096e+20 0 0 0 0 0 
225281 0 20.822 1.98835e+20 298.236 297.636 298.483 5004.18 -1.56868 -2.74972 1.98835e+20 0 0 0 0 0 
290817 0 20.766 1.98301e+20 296.839 300.515 296.262 5005.86 -2.21152 2.12781 1.98301e+20 0 0 0 0 0 
102401 0 21.078 2.0128e+20 296.568 301.516 297.327 5003.41 1.82271 -1.06749 2.0128e+20 0 0 0 0 0 
167937 0 20.902 1.99599e+20 296.709 302.485 297.174 5000.85 3.37866 1.64169 1.99599e+20 0 0 0 0 0 
233473 0 20.974 2.00287e+20 296.299 302.506 297.976 5000.45 -4.3016 1.02636 2.00287e+20 0 0 0 0 0 
299009 0 20.848 1.99084e+20 302.681 299.3 297.092 5004.06 -2.56169 -0.0899385 1.99084e+20 0 0 0 0 0 
74757 0 20.538 1.96123e+20 300.825 299.56 297.609 5000.1 -2.28665 2.34394 1.96123e+20 0 0 0 0 0 
140293 0 20.244 1.93316e+20 297.11 292.769 299.871 5004.42 0.694917 1.84235 1.93316e+20 0 0 0 0 0 
205829 0 20.586 1.96582e+20 300.507 302.239 296.267 5001.26 -0.864895 -0.0469473 1.96582e+20 0 0 0 0 0 
271365 0 20.774 1.98377e+20 300.597 297.644 301.062 4999.97 1.40278 1.53488 1.98377e+20 0 0 0 0 0 
82949 0 20.368 1.945e+20 300.01 298.89 298.31 5003.91 -0.429944 1.30851 1.945e+20 0 0 0 0 0 
148485 0 20.362 1.94443e+20 305.035 295.258 298.774 5003.62 3.31626 1.22107 1.94443e+20 0 0 0 0 0 
214021 0 20.558 1.96314e+20 304.781 300.889 300.347 5000.58 2.70152 -0.518922 1.96314e+20 0 0 0 0 0 
279557 0 20.592 1.96639e+20 301.723 299.026 298.315 5003.41 -0.026589 3.20674 1.96639e+20 0 0 0 0 0 
91141 0 21.006 2.00593e+20 301.287 303.315 298.122 4997.76 6.93421 -0.146662 2.00593e+20 0 0 0 0 0 
156677 0 20.816 1.98778e+20 297.285 301.033 298.156 4999.56 7.77602 -2.27998 1.98778e+20 0 0 0 0 0 
222213 0 20.678 1.9746e+20 300.929 299.85 299.221 5000.89 4.6938 0.634498 1.9746e+20 0 0 0 0 0 
287749 0 20.328 1.94118e+20 300.934 301.986 300.208 5000.01 4.96056 -2.75307 1.94118e+20 0 0 0 0 0 
99333 0 20.688 1.97556e+20 300.899 300.772 298.683 4997.65 6.38523 -1.13385 1.97556e+20 0 0 0 0 0 
164869 0 20.88 1.99389e+20 298.029 304.146 299.393 4997.84 5.28789 -2.8535 1.99389e+20 0 0 0 0 0 
230405 0 20.636 1.97059e+20 300.086 299.959 299.27 4999.77 3.61893 1.0967 1.97059e+20 0 0 0 0 0 
295941 0 20.486 1.95627e+20 302.938 302.588 297.475 5001.37 8.38235 -1.43761 1.95627e+20 0 0 0 0 0 
75781 0 20.026 1.91234e+20 298.444 301.274 299.379 5003.74 1.85731 2.05394 1.91234e+20 0 0 0 0 0 
141317 0 20.358 1.94405e+20 299.794 299.252 296.806 5006.28 3.45696 0.468991 1.94405e+20 0 0 0 0 0 
206853 0 20.654 1.97231e+20 301.275 299.269 301.651 4998.47 1.00966 -0.902004 1.97231e+20 0 0 0 0 0 
272389 0 20.498 1.95741e+20 302.896 299.928 297.369 5000.25 -1.14745 4.01971 1.95741e+20 0 0 0 0 0 
83973 0 20.086 1.91807e+20 303.191 296.014 300.44 5001.39 1.46677 2.56547 1.91807e+20 0 0 0 0 0 
149509 0 20.216 1.93049e+20 301.772 299.732 298.57 5005.24 0.110608 -3.43668 1.93049e+20 0 0 0 0 0 
215045 0 20.53 1.96047e+20 302.228 303.405 298.052 5000.98 3.05573 1.03668 1.96047e+20 0 0 0 0 0 
280581 0 20.512 1.95875e+20 297.571 300.714 300.336 5001.63 1.14331 2.89387 1.95875e+20 0 0 0 0 0 
92165 0 20.748 1.98129e+20 298.875 300.569 298.05 4997.21 7.5362 -1.18824 1.98129e+20 0 0 0 0 0 
157701 0 20.652 1.97212e+20 298.68 303.536 298.574 4999.11 3.52306 -4.20238 1.97212e+20 0 0 0 0 0 
223237 0 20.476 1.95531e+20 300.805 302.346 299.698 4999.35 4.82475 -3.45374 1.95531e+20 0 0 0 0 0 
288773 0 20.51 1.95856e+20 301.808 298.932 297.406 5001.22 6.7358 0.905403 1.95856e+20 0 0 0 0 0 
100357 0 20.732 1.97976e+20 297.664 299.761 298.531 4995.45 5.44596 -3.16613 1.97976e+20 0 0 0 0 0 
165893 0 20.646 1.97155e+20 299.899 302.117 299.386 4997.77 8.76463 -5.18361 1.97155e+20 0 0 0 0 0 
231429 0 20.272 1.93583e+20 299.142 304.636 300.686 5001.5 2.57391 -6.94853 1.93583e+20 0 0 0 0 0 
296965 0 20.554 1.96276e+20 302.452 300.181 297.134 4999.11 6.57967 -0.0477265 1.96276e+20 0 0 0 0 0 
76805 0 20.788 1.98511e+20 299.149 298.874 300.514 5000.19 4.12963 -2.27809 1.98511e+20 0 0 0 0 0 
142341 0 20.572 1.96448e+20 300.717 302.49 298.414 5002.56 1.89726 1.78909 1.96448e+20 0 0 0 0 0 
207877 0 20.694 1.97613e+20 300.958 301.473 298.618 5001.83 -1.4179 0.0514214 1.97613e+20 0 0 0 0 0 
273413 0 20.418 1.94978e+20 301.82 298.598 297.352 5000.79 0.542088 2.83112 1.94978e+20 0 0 0 0 0 
84997 0 20.48 1.9557e+20 300.945 300.402 300.096 5003.81 0.91815 -0.183447 1.9557e+20 0 0 0 0 0 
150533 0 20.688 1.97556e+20 297.751 300.611 299.743 4999.78 4.32575 0.222127 1.97556e+20 0 0 0 0 0 
216069 0 20.516 1.95913e+20 298.553 300.247 297.386 5002.96 -2.93654 0.345814 1.95913e+20 0 0 0 0 0 
281605 0 20.518 1.95932e+20 302.268 300.755 297.321 4996.89 1.88088 -0.0994532 1.95932e+20 0 0 0 0 0 
93189 0 20.62 1.96906e+20 300.983 295.168 299.364 5001.6 -4.17838 0.577245 1.96906e+20 0 0 0 0 0 
158725 0 20.538 1.96123e+20 301.591 298.519 296.287 5002.03 -1.23509 2.87366 1.96123e+20 0 0 0 0 0 
224261 0 20.738 1.98033e+20 301.316 297.644 297.562 5004.88 1.43681 0.818241 1.98033e+20 0 0 0 0 0 
289797 0 20.8 1.98625e+20 300.364 298.749 299.316 5001.4 0.76589 -1.47064 1.98625e+20 0 0 0 0 0 
101381 0 20.572 1.96448e+20 301.339 292.111 299.557 5003.93 -2.16362 3.65785 1.96448e+20 0 0 0 0 0 
166917 0 20.558 1.96314e+20 303.281 297.382 298.439 5003.58 -1.81741 2.69407 1.96314e+20 0 0 0 0 0 
232453 0 20.464 1.95417e+20 299.101 298.114 296.285 5001.83 -0.174721 0.0718692 1.95417e+20 0 0 0 0 0 
297989 0 20.596 1.96677e+20 300.974 298.545 298.18 5004.61 0.0771824 -3.1484 1.96677e+20 0 0 0 0 0 
77829 0 20.612 1.9683e+20 301.6 301.983 299.028 5001.08 -2.36232 -1.25828 1.9683e+20 0 0 0 0 0 
143365 0 20.636 1.97059e+20 298.805 297.349 300.337 5005.16 0.937119 0.299278 1.97059e+20 0 0 0 0 0 
208901 0 20.36 1.94424e+20 301.78 298.506 298.213 5003.45 -1.53421 3.40555 1.94424e+20 0 0 0 0 0 
274437 0 20.386 1.94672e+20 303.325 300.47 298.07 5003.1 1.95619 -1.09453 1.94672e+20 0 0 0 0 0 
86021 0 20.774 1.98377e+20 299.557 301.445 298.267 5000.1 1.58267 0.65053 1.98377e+20 0 0 0 0 0 
151557 0 20.858 1.99179e+20 301.438 297.596 299.412 5004.21 -0.221657 -0.217796 1.99179e+20 0 0 0 0 0 
217093 0 20.518 1.95932e+20 301.356 298.053 299.673 4999.01 -0.7569 -1.50133 1.95932e+20 0 0 0 0 0 
282629 0 20.496 1.95722e+20 303.628 301.486 296.183 5003.66 0.625757 2.99335 1.95722e+20 0 0 0 0 0 
94213 0 20.7 1.9767e+20 298.207 298.956 298.157 5000.97 -1.89658 3.94991 1.9767e+20 0 0 0 0 0 
159749 0 20.494 1.95703e+20 300.283 294.207 298.527 5003.06 -3.04013 2.67823 1.95703e+20 0 0 0 0 0 
225285 0 20.668 1.97365e+20 301.142 300.577 298.119 5002.91 -0.317675 -0.481105 1.97365e+20 0 0 0 0 0 
290821 0 20.424 1.95035e+20 302.289 298.607 299.13 5002.93 0.973754 0.515645 1.95035e+20 0 0 0 0 0 
102405 0 20.506 1.95818e+20 301.891 299.21 298.165 5002.08 -0.742824 2.32435 1.95818e+20 0 0 0 0 0 
167941 0 20.314 1.93984e+20 299.663 295.787 296.134 5002.52 -0.833654 1.67178 1.93984e+20 0 0 0 0 0 
233477 0 20.538 1.96123e+20 300.894 296.17 297.138 5003.38 -0.858025 -0.805898 1.96123e+20 0 0 0 0 0 
299013 0 20.498 1.95741e+20 299.75 296.393 298.172 5002.44 -2.7575 -3.52738 1.95741e+20 0 0 0 0 0 
74761 0 20.884 1.99428e+20 1539.96 547.749 342.978 4883.63 -1.68148 2.2607 1.99428e+20 0 0 0 0 0 
140297 0 28.208 2.69367e+20 11671.3 4168.56 1436.35 3538.9 -5.29289 0.143968 2.69367e+20 0 0 0 0 0 
205833 0 19.976 1.90757e+20 1466.54 583.645 365.023 4888.89 4.80862 0.40691 1.90757e+20 0 0 0 0 0 
271369 0 28.264 2.69901e+20 12214.1 4344.66 1572.99 3430.43 19.4255 -14.3054 2.69901e+20 0 0 0 0 0 
82953 0 65.26 6.23187e+20 14569.5 9011.7 5499.49 1514.96 0.160701 2.99827 6.23187e+20 0 0 0 0 0 
148489 0 114.214 1.09066e+21 12615.1 9770.63 8169.84 860.821 4.25822 -18.5121 1.09066e+21 0 0 0 0 0 
214025 0 64.232 6.1337e+20 14644.7 8832.83 5525.49 1490.71 5.22049 -8.21739 6.1337e+20 0 0 0 0 0 
279561 0 113.092 1.07995e+21 12712.1 9858.21 8154.89 842.594 -11.3574 -8.97909 1.07995e+21 0 0 0 0 0 
91145 0 20.108 1.92017e+20 1472.17 489.499 345.435 4888.52 4.45716 -1.57109 1.92017e+20 0 0 0 0 0 
156681 0 27.892 2.66349e+20 11631.2 4005.52 1401.54 3530.01 16.4397 -7.46175 2.66349e+20 0 0 0 0 0 
222217 0 21.076 2.01261e+20 1174.46 497.914 341.612 4913.9 -3.08016 -0.219477 2.01261e+20 0 0 0 0 0 
287753 0 28.918 2.76147e+20 11226.8 3901.61 1387.71 3582.93 10.6023 19.1845 2.76147e+20 0 0 0 0 0 
99337 0 64.398 6.14956e+20 14511.8 8747.3 5382.86 1502.85 3.78749 3.3487 6.14956e+20 0 0 0 0 0 
164873 0 113.468 1.08354e+21 12713.9 9890.37 8209.62 854.531 -11.0573 13.2508 1.08354e+21 0 0 0 0 0 
230409 0 66.686 6.36804e+20 14419.4 8753.71 5348.21 1524.86 10.0652 17.4092 6.36804e+20 0 0 0 0 0 
295945 0 114.646 1.09479e+21 12700.3 9842.81 8053.56 870.266 -3.27375 4.61429 1.09479e+21 0 0 0 0 0 
75785 0 140.356 1.3403e+21 11806.1 10114.3 9124.1 695.47 -1.96665 3.44177 1.3403e+21 0 0 0 0 0 
141321 0 157.652 1.50547e+21 11568.8 10219.6 9613.56 587.438 13.4733 -4.55718 1.50547e+21 0 0 0 0 0 
206857 0 141.102 1.34742e+21 11888.4 10124.8 9254.19 665.048 11.6753 -6.64883 1.34742e+21 0 0 0 0 0 
272393 0 160.34 1.53113e+21 11582.1 10292.1 9695.17 563.252 18.7559 -6.15193 1.53113e+21 0 0 0 0 0 
83977 0 176.66 1.68698e+21 11250.3 10421.2 9760.66 483.872 15.4576 -0.429609 1.68698e+21 0 0 0 0 0 
149513 0 195.548 1.86735e+21 10959.3 10590.7 9963.84 399.816 5.52404 8.30833 1.86735e+21 0 0 0 0 0 
215049 0 182.182 1.73971e+21 11271.4 10478.1 9898.83 459.608 21.7709 -2.51595 1.73971e+21 0 0 0 0 0 
280585 0 198.282 1.89345e+21 10989.6 10573.2 10050.1 394.056 17.341 12.8087 1.89345e+21 0 0 0 0 0 
92169 0 144.266 1.37764e+21 11931.1 10177.1 9287.61 646.193 21.6378 -1.55365 1.37764e+21 0 0 0 0 0 
157705 0 162.982 1.55636e+21 11604.2 10312.3 9769.37 537.998 36.9586 -18.144 1.55636e+21 0 0 0 0 0 
223241 0 143.198 1.36744e+21 11951.6 10164.2 9327.28 664.858 30.5333 -5.24331 1.36744e+21 0 0 0 0 0 
288777 0 163.82 1.56437e+21 11609.5 10317.9 9765.78 559.076 33.1956 -12.4633 1.56437e+21 0 0 0 0 0 
100361 0 179.726 1.71626e+21 11324.3 10406.4 9886.53 455.074 24.0981 -1.42188 1.71626e+21 0 0 0 0 0 
165897 0 197.478 1.88578e+21 10983.8 10616.4 10058.1 385.787 31.3199 19.1211 1.88578e+21 0 0 0 0 0 
231433 0 181.892 1.73694e+21 11247.6 10508.1 9884.97 456.224 41.4906 0.568248 1.73694e+21 0 0 0 0 0 
296969 0 199.618 1.90621e+21 11018.2 10543.1 10067.3 393.905 38.1947 6.26919 1.90621e+21 0 0 0 0 0 
76809 0 20.876 1.99351e+20 1138.5 458.784 330.776 4923.61 2.52442 -1.34809 1.99351e+20 0 0 0 0 0 
142345 0 28.472 2.71888e+20 11357.1 4040.4 1352.75 3590.9 -11.6695 14.2427 2.71888e+20 0 0 0 0 0 
207881 0 20.416 1.94958e+20 1032.25 444.374 324.907 4934.72 -0.869927 -1.69557 1.94958e+20 0 0 0 0 0 
273417 0 28.682 2.73893e+20 11672.7 4223.15 1452.98 3518.41 6.53006 -18.9581 2.73893e+20 0 0 0 0 0 
85001 0 66.218 6.32335e+20 14617.3 8718.65 5390.55 1535.27 6.27246 -4.61502 6.32335e+20 0 0 0 0 0 
150537 0 112.912 1.07823e+21 12806.8 9883.69 8137.85 870.357 7.84084 11.2846 1.07823e+21 0 0 0 0 0 
216073 0 65.774 6.28095e+20 14598.2 8925.15 5543.21 1504.7 25.1707 6.63095 6.28095e+20 0 0 0 0 0 
281609 0 111.998 1.0695e+21 12817.3 9938.44 8224.6 845.176 28.8811 -6.03492 1.0695e+21 0 0 0 0 0 
93193 0 20.422 1.95016e+20 1187.59 507.77 341.069 4915.52 -4.14805 0.406757 1.95016e+20 0 0 0 0 0 
158729 0 28.436 2.71544e+20 11798.4 4099.59 1457.79 3508.05 22.5298 -11.644 2.71544e+20 0 0 0 0 0 
224265 0 20.284 1.93698e+20 1077.41 449.445 326.896 4928.2 -0.789358 5.36804 1.93698e+20 0 0 0 0 0 
289801 0 28.086 2.68202e+20 11016.8 3861.33 1355.89 3622.73 22.9938 0.401582 2.68202e+20 0 0 0 0 0 
101385 0 64.608 6.16961e+20 14664.4 8897.33 5393.74 1524.02 39.4613 9.1059 6.16961e+20 0 0 0 0 0 
166921 0 109.74 1.04794e+21 12860.9 9931.37 8265.88 851.543 43.8983 -2.93884 1.04794e+21 0 0 0 0 0 
232457 0 64.53 6.16216e+20 14625.7 8830.12 5361.32 1539.14 55.3507 -7.30825 6.16216e+20 0 0 0 0 0 
297993 0 111.392 1.06372e+21 12858.5 9822.3 8182 864.207 58.7108 21.3182 1.06372e+21 0 0 0 0 0 
77833 0 142.576 1.3615e+21 12091.5 10211.7 9334.23 655.659 40.3747 -7.92588 1.3615e+21 0 0 0 0 0 
143369 0 161.508 1.54229e+21 11776.5 10369.7 9824.43 546.202 43.7026 -11.7254 1.54229e+21 0 0 0 0 0 
208905 0 142.466 1.36045e+21 12088.8 10281.1 9363.1 649.994 46.5555 -6.4122 1.36045e+21 0 0 0 0 0 
274441 0 163.772 1.56391e+21 11663 10390.3 9820.83 540.251 55.1269 2.59407 1.56391e+21 0 0 0 0 0 
86025 0 182.584 1.74355e+21 11255.5 10460.7 9900.3 460.148 41.888 7.42732 1.74355e+21 0 0 0 0 0 
151561 0 199.818 1.90812e+21 10936.7 10455 10071.7 389.607 50.6479 2.37886 1.90812e+21 0 0 0 0 0 
217097 0 185.788 1.77414e+21 11320 10574.6 9962.44 442.275 53.3261 -0.615955 1.77414e+21 0 0 0 0 0 
282633 0 200.352 1.91322e+21 10966 10611.7 10165 379.669 64.0281 -5.24865 1.91322e+21 0 0 0 0 0 
94217 0 138.402 1.32164e+21 12083.3 10225.2 9434.46 646.373 54.2219 7.29265 1.32164e+21 0 0 0 0 0 
159753 0 161.178 1.53914e+21 11678.4 10302.3 9776.49 523.312 69.05 -15.8095 1.53914e+21 0 0 0 0 0 
225289 0 140.994 1.34639e+21 12103.5 10200.2 9274.25 656.274 67.1814 6.2164 1.34639e+21 0 0 0 0 0 
290825 0 163.506 1.56137e+21 11636.6 10296.5 9677.64 534.661 82.0895 13.3187 1.56137e+21 0 0 0 0 0 
102409 0 181.814 1.7362e+21 11316.1 10537.8 9904.57 435.361 69.7601 5.22136 1.7362e+21 0 0 0 0 0 
167945 0 199.366 1.90381e+21 10992.1 10712.7 10233.2 360.81 73.7756 0.0647935 1.90381e+21 0 0 0 0 0 
233481 0 188.944 1.80428e+21 11130.3 10436 9857.99 418.2 81.2873 5.35527 1.80428e+21 0 0 0 0 0 
299017 0 203.034 1.93883e+21 10920.8 10521.4 10216.6 356.746 90.1225 -2.16358 1.93883e+21 0 0 0 0 0 
74785 0 20.872 1.99313e+20 298.441 298.33 299.806 5000.37 3.93819 -1.21357 1.99313e+20 0 0 0 0 0 
140321 0 20.658 1.97269e+20 301.692 302.431 298.574 4998.15 -2.72855 0.625851 1.97269e+20 0 0 0 0 0 
205857 0 20.866 1.99256e+20 299.098 302.728 299.02 4999.2 -1.57315 4.15826 1.99256e+20 0 0 0 0 0 
271393 0 20.864 1.99237e+20 299.03 297.095 297.348 5001.89 -3.03673 1.16417 1.99237e+20 0 0 0 0 0 
82977 0 20.796 1.98587e+20 297.786 297.673 301.14 4999.81 0.420978 -0.485845 1.98587e+20 0 0 0 0 0 
148513 0 20.682 1.97499e+20 301.969 298.399 299.26 4997.77 1.93941 -2.03665 1.97499e+20 0 0 0 0 0 
214049 0 20.91 1.99676e+20 303.233 301.728 296.184 5000.93 0.240559 3.27285 1.99676e+20 0 0 0 0 0 
279585 0 20.894 1.99523e+20 301.324 299.457 297.19 4998.49 -2.40481 0.832316 1.99523e+20 0 0 0 0 0 
91169 0 20.978 2.00325e+20 303.293 293.522 297.087 5001.76 -2.42585 -1.42312 2.00325e+20 0 0 0 0 0 
156705 0 20.646 1.97155e+20 302.766 299.659 297.026 5000.9 -2.58903 -0.000719199 1.97155e+20 0 0 0 0 0 
222241 0 20.526 1.96009e+20 303.778 297.768 297.085 5001.23 -1.87394 -1.80201 1.96009e+20 0 0 0 0 0 
287777 0 20.582 1.96544e+20 304.838 298.923 297.88 5001.15 0.64782 -0.498911 1.96544e+20 0 0 0 0 0 
99361 0 20.896 1.99542e+20 302.825 300.581 298.01 5000.78 -5.44282 -2.87438 1.99542e+20 0 0 0 0 0 
164897 0 20.73 1.97957e+20 303.367 297.203 295.976 5000.08 -3.94485 3.64058 1.97957e+20 0 0 0 0 0 
230433 0 20.668 1.97365e+20 299.963 293.534 296.64 4999.61 -1.24158 0.374034 1.97365e+20 0 0 0 0 0 
295969 0 20.404 1.94844e+20 300.353 298.831 296.969 5000.68 -1.12734 -1.62576 1.94844e+20 0 0 0 0 0 
75809 0 20.74 1.98052e+20 301.066 296.376 298.959 5001.31 -3.82247 -0.0500645 1.98052e+20 0 0 0 0 0 
141345 0 20.706 1.97728e+20 299.193 296.417 300.16 4996.43 2.17739 -1.65422 1.97728e+20 0 0 0 0 0 
206881 0 20.922 1.9979e+20 304.018 299.482 296.672 5003.42 1.0261 2.54485 1.9979e+20 0 0 0 0 0 
272417 0 20.944 2e+20 302.602 301.126 296.929 4996.88 0.117397 1.60568 2e+20 0 0 0 0 0 
84001 0 20.672 1.97403e+20 297.608 296.833 299.875 5001.53 0.241312 -0.868981 1.97403e+20 0 0 0 0 0 
149537 0 20.672 1.97403e+20 300.032 294.559 301.59 4998.86 -2.6424 -1.32061 1.97403e+20 0 0 0 0 0 
215073 0 20.762 1.98262e+20 302.322 301.182 297.071 5003.36 -0.212624 2.02283 1.98262e+20 0 0 0 0 0 
280609 0 20.626 1.96964e+20 301.956 301.657 295.855 4999.29 1.73877 1.78895 1.96964e+20 0 0 0 0 0 
92193 0 20.672 1.97403e+20 302.725 297.717 297.625 5003.46 -1.4677 0.475156 1.97403e+20 0 0 0 0 0 
157729 0 21.104 2.01528e+20 301.958 297.097 297.112 5002.98 -3.78099 -3.7791 2.01528e+20 0 0 0 0 0 
223265 0 20.53 1.96047e+20 302.861 296.58 297.101 4998.88 -0.177932 1.754 1.96047e+20 0 0 0 0 0 
288801 0 20.496 1.95722e+20 299.27 298.164 296.828 4999.09 -2.20633 -1.9663 1.95722e+20 0 0 0 0 0 
100385 0 20.356 1.94385e+20 305.571 297.549 296.919 5000.55 -5.23814 3.35314 1.94385e+20 0 0 0 0 0 
165921 0 20.992 2.00459e+20 303.817 297.899 297.339 5005.13 -3.07078 0.334895 2.00459e+20 0 0 0 0 0 
231457 0 20.456 1.9534e+20 301.372 299.966 297.417 4998.81 -1.70231 -1.066 1.9534e+20 0 0 0 0 0 
296993 0 20.344 1.94271e+20 299.494 295.382 296.564 5000.76 -1.79614 -0.250163 1.94271e+20 0 0 0 0 0 
76833 0 20.672 1.97403e+20 296.09 301.801 300.447 5000.71 -2.97586 -1.45973 1.97403e+20 0 0 0 0 0 
142369 0 20.724 1.979e+20 297.526 301.472 301.345 5000.35 -0.450793 -1.69533 1.979e+20 0 0 0 0 0 
207905 0 20.852 1.99122e+20 303.676 303.028 296.532 5000.54 -1.15649 5.27042 1.99122e+20 0 0 0 0 0 
273441 0 20.658 1.97269e+20 297.164 302.671 298.327 5004.19 -2.5625 3.86915 1.97269e+20 0 0 0 0 0 
85025 0 20.72 1.97861e+20 301.251 299.34 299.294 4999.45 1.83 -0.462543 1.97861e+20 0 0 0 0 0 
150561 0 20.682 1.97499e+20 299.096 301.402 300.333 5000.93 0.929738 -1.58014 1.97499e+20 0 0 0 0 0 
216097 0 20.57 1.96429e+20 301.29 302.292 294.092 5002.87 -1.36762 2.77446 1.96429e+20 0 0 0 0 0 
281633 0 20.912 1.99695e+20 299.276 300.979 297.018 5000.31 -0.156966 4.59349 1.99695e+20 0 0 0 0 0 
93217 0 20.778 1.98415e+20 301.199 299.409 297.041 5001.06 1.84612 4.26012 1.98415e+20 0 0 0 0 0 
158753 0 20.638 1.97078e+20 302.295 300.766 297.433 5003.21 0.894263 2.49752 1.97078e+20 0 0 0 0 0 
224289 0 20.738 1.98033e+20 298.779 301.759 298.116 5003.11 0.0855625 1.89222 1.98033e+20 0 0 0 0 0 
289825 0 20.812 1.9874e+20 296.827 300.682 298.494 5004.15 3.72571 4.82495 1.9874e+20 0 0 0 0 0 
101409 0 20.682 1.97499e+20 298.357 296.997 299.489 5001.43 0.0430254 3.85153 1.97499e+20 0 0 0 0 0 
166945 0 20.694 1.97613e+20 300.602 302.496 297.486 5003.85 0.181532 0.670743 1.97613e+20 0 0 0 0 0 
232481 0 20.566 1.96391e+20 299.425 298.896 297.951 5003.2 -1.88483 2.21672 1.96391e+20 0 0 0 0 0 
298017 0 20.75 1.98148e+20 300.192 305.493 299.312 5003.39 -2.81863 4.35685 1.98148e+20 0 0 0 0 0 
77857 0 20.832 1.98931e+20 300.665 302.679 303.07 5000.19 0.888275 -2.31239 1.98931e+20 0 0 0 0 0 
143393 0 20.936 1.99924e+20 300.632 300.939 296.921 5001.19 1.01344 1.0008 1.99924e+20 0 0 0 0 0 
208929 0 20.422 1.95016e+20 300.209 301.555 298.327 5000.41 -1.63871 3.75985 1.95016e+20 0 0 0 0 0 
274465 0 20.446 1.95245e+20 301.549 299.954 294.968 5002.41 2.21283 1.22554 1.95245e+20 0 0 0 0 0 
86049 0 20.678 1.9746e+20 296.938 300.168 301.098 5001.38 -0.503953 -2.40474 1.9746e+20 0 0 0 0 0 
151585 0 20.924 1.99809e+20 301.43 303.367 298.647 5000.69 2.10305 1.47932 1.99809e+20 0 0 0 0 0 
217121 0 20.676 1.97441e+20 299.826 297.643 296.949 5000.4 -1.63076 3.73619 1.97441e+20 0 0 0 0 0 
282657 0 20.144 1.92361e+20 298.709 303.061 296.422 5000.57 -1.42552 -0.0853574 1.92361e+20 0 0 0 0 0 
94241 0 20.538 1.96123e+20 300.721 293.224 298.157 5003.94 1.27994 6.06924 1.96123e+20 0 0 0 0 0 
159777 0 20.686 1.97537e+20 298.163 301.148 298.765 5002.78 0.105836 2.59248 1.97537e+20 0 0 0 0 0 
225313 0 20.676 1.97441e+20 299.345 297.77 297.144 5004.34 0.1844 3.53631 1.97441e+20 0 0 0 0 0 
290849 0 20.76 1.98243e+20 300.452 302.085 299.295 5004.01 -1.60656 0.273431 1.98243e+20 0 0 0 0 0 
102433 0 20.74 1.98052e+20 297.903 301.243 299.751 5000.94 3.07205 1.71328 1.98052e+20 0 0 0 0 0 
167969 0 20.842 1.99026e+20 297.071 299.453 299.911 5004.68 -2.115 5.55505 1.99026e+20 0 0 0 0 0 
233505 0 20.796 1.98587e+20 300.832 305.279 298.874 5003.08 -1.15635 3.94829 1.98587e+20 0 0 0 0 0 
299041 0 20.55 1.96238e+20 303.136 297.178 298.905 5002.66 -2.73266 1.90861 1.96238e+20 0 0 0 0 0 
74789 0 20.52 1.95952e+20 299.202 297.75 299.112 5004.32 -2.10484 1.06995 1.95952e+20 0 0 0 0 0 
140325 0 20.18 1.92705e+20 297.902 301.432 299.783 5007.43 -1.90267 0.190298 1.92705e+20 0 0 0 0 0 
205861 0 20.718 1.97842e+20 304.321 299.721 298.326 5000.79 -0.182694 0.491919 1.97842e+20 0 0 0 0 0 
271397 0 20.536 1.96104e+20 303.144 299.649 296.948 4997.4 -0.862817 0.0873017 1.96104e+20 0 0 0 0 0 
82981 0 20.288 1.93736e+20 297.461 299.792 300.965 5003.58 -2.99916 0.891302 1.93736e+20 0 0 0 0 0 
148517 0 20.21 1.92991e+20 300.784 302.328 299.595 5005.11 -3.77859 3.45633 1.92991e+20 0 0 0 0 0 
214053 0 20.678 1.9746e+20 301.238 298.882 299.133 5003.12 -1.04053 -1.99217 1.9746e+20 0 0 0 0 0 
279589 0 20.518 1.95932e+20 304.74 297.813 296.544 4998.66 1.93986 0.845478 1.95932e+20 0 0 0 0 0 
91173 0 20.274 1.93602e+20 301.769 297.509 296.635 4999.73 2.90047 0.531744 1.93602e+20 0 0 0 0 0 
156709 0 20.366 1.94481e+20 303.062 295.887 297.479 5004.85 3.6572 0.373077 1.94481e+20 0 0 0 0 0 
222245 0 20.154 1.92457e+20 294.157 299.353 297.172 5001.98 -0.852902 5.36623 1.92457e+20 0 0 0 0 0 
287781 0 20.138 1.92304e+20 297.75 295.631 298.004 5000.89 -2.23274 3.03324 1.92304e+20 0 0 0 0 0 
99365 0 20.396 1.94767e+20 300.939 301.914 295.436 4998.64 1.86409 -1.74659 1.94767e+20 0 0 0 0 0 
164901 0 20.3 1.93851e+20 305.782 296.844 296.112 5003.02 2.59354 0.115325 1.93851e+20 0 0 0 0 0 
230437 0 20.046 1.91425e+20 298.568 295.872 296.43 5002.57 -1.8383 1.26811 1.91425e+20 0 0 0 0 0 
295973 0 20.11 1.92036e+20 296.36 298.286 298.217 5003 1.58919 5.69805 1.92036e+20 0 0 0 0 0 
75813 0 20.248 1.93354e+20 298.472 297.725 298.517 5003.65 -0.441632 0.972837 1.93354e+20 0 0 0 0 0 
141349 0 20.382 1.94634e+20 303.46 297.044 298.907 5006.08 -2.96413 3.72699 1.94634e+20 0 0 0 0 0 
206885 0 20.406 1.94863e+20 301.761 299.574 298.521 5001.11 -3.50729 -2.31221 1.94863e+20 0 0 0 0 0 
272421 0 20.67 1.97384e+20 301.942 298.539 300.666 5001.22 -1.26577 -1.39119 1.97384e+20 0 0 0 0 0 
84005 0 20.124 1.9217e+20 299.627 300.276 298.281 5004.72 -0.193838 1.9477 1.9217e+20 0 0 0 0 0 
149541 0 20.576 1.96486e+20 300.623 298.919 297.865 5002.12 -2.59074 0.465729 1.96486e+20 0 0 0 0 0 
215077 0 20.12 1.92132e+20 302.246 300.42 295.644 4998.66 -2.04636 -5.14466 1.92132e+20 0 0 0 0 0 
280613 0 20.326 1.94099e+20 303.494 297.612 299.255 5001.97 -0.303879 0.69107 1.94099e+20 0 0 0 0 0 
92197 0 20.17 1.92609e+20 297.932 300.403 295.416 5003.84 5.47757 0.186155 1.92609e+20 0 0 0 0 0 
157733 0 20.582 1.96544e+20 303.887 299.486 296.083 5001.33 1.89539 -1.34861 1.96544e+20 0 0 0 0 0 
223269 0 20.18 1.92705e+20 300.17 289.871 295.925 5004.13 -1.78138 3.78916 1.92705e+20 0 0 0 0 0 
288805 0 19.942 1.90432e+20 298.162 296.804 296.775 5002.41 -0.555168 4.00936 1.90432e+20 0 0 0 0 0 
100389 0 20.328 1.94118e+20 299.345 297.901 297.148 5001.81 4.70842 2.04632 1.94118e+20 0 0 0 0 0 
165925 0 20.434 1.9513e+20 301.936 300.063 295.784 5000.98 4.96146 0.592261 1.9513e+20 0 0 0 0 0 
231461 0 20.258 1.9345e+20 298.831 293.542 297.431 5002.16 2.30348 3.97984 1.9345e+20 0 0 0 0 0 
296997 0 19.922 1.90241e+20 298.161 294.935 296.301 5001.53 -2.91701 0.177705 1.90241e+20 0 0 0 0 0 
76837 0 20.174 1.92648e+20 298.038 295.612 299.212 4998.4 -0.46791 3.55512 1.92648e+20 0 0 0 0 0 
142373 0 20.464 1.95417e+20 297.768 300.54 299.496 5001.7 -1.75127 1.32496 1.95417e+20 0 0 0 0 0 
207909 0 20.286 1.93717e+20 301.073 302.314 299.804 4999.08 0.44986 0.543197 1.93717e+20 0 0 0 0 0 
273445 0 20.42 1.94997e+20 302.917 301.771 299.053 4995.99 -1.25205 -2.49425 1.94997e+20 0 0 0 0 0 
85029 0 20.088 1.91826e+20 299.544 294.159 302.337 4998.4 -1.21779 0.247925 1.91826e+20 0 0 0 0 0 
150565 0 20.178 1.92686e+20 297.585 299.688 299.189 4998.18 -2.86715 4.05356 1.92686e+20 0 0 0 0 0 
216101 0 20.286 1.93717e+20 299.607 301.328 301.16 4997.65 0.552153 -0.623725 1.93717e+20 0 0 0 0 0 
281637 0 20.206 1.92953e+20 302.116 300.692 298.137 4998.87 -0.419119 -1.02017 1.92953e+20 0 0 0 0 0 
93221 0 20.3 1.93851e+20 299.332 300.677 297.66 5004.52 1.29837 4.93492 1.93851e+20 0 0 0 0 0 
158757 0 20.294 1.93793e+20 299.059 304.645 297.558 5004.06 -1.00717 2.44821 1.93793e+20 0 0 0 0 0 