ITEM: TIMESTEP
21000
ITEM: NUMBER OF CELLS
26430
ITEM: BOX BOUNDS oo ao pp
-2.5 5
0 5
-0.0005 0.0005
ITEM: CELLS id proc f_avg_n f_avg_nrho f_avg_temp_tra f_avg_temp_rot f_avg_temp_vib f_avg_vel[1] f_avg_vel[2] f_avg_vel[3] f_avg_nrho_CO2 f_avg_nrho_O2 f_avg_nrho_C2 f_avg_nrho_CO f_avg_nrho_O f_avg_nrho_C 
74753 0 21.4763 2.05083e+20 300.757 300.773 296.448 5003.78 15.8681 4.00933 2.05083e+20 0 0 0 0 0 
140289 0 22.1762 2.11768e+20 301.663 298.797 299.453 4999.31 36.2898 -1.26042 2.11768e+20 0 0 0 0 0 
205825 0 20.9638 2.00189e+20 299.281 299.678 299.505 4996.66 -1.01938 1.08139 2.00189e+20 0 0 0 0 0 
271361 0 20.9862 2.00404e+20 302.845 300.17 298.171 4996.03 0.868542 -0.345905 2.00404e+20 0 0 0 0 0 
82945 0 22.8912 2.18595e+20 302.79 297.93 297.526 5002.42 45.8925 3.43098 2.18595e+20 0 0 0 0 0 
148481 0 23.075 2.2035e+20 301.851 303.492 298.555 5000.31 52.437 0.447369 2.2035e+20 0 0 0 0 0 
214017 0 20.8538 1.99139e+20 299.478 301.326 299.911 4997.16 1.77383 -0.371566 1.99139e+20 0 0 0 0 0 
279553 0 20.8813 1.99401e+20 302.064 300.429 298.013 4998.05 1.75141 1.87043 1.99401e+20 0 0 0 0 0 
91137 0 20.89 1.99485e+20 299.45 302.272 297.737 5001.82 2.96934 1.27329 1.99485e+20 0 0 0 0 0 
156673 0 20.8463 1.99067e+20 302.874 297.423 297.773 5000.12 3.79038 2.7638 1.99067e+20 0 0 0 0 0 
222209 0 21.0063 2.00595e+20 299.463 305.276 300.232 4999.43 -2.85853 0.141885 2.00595e+20 0 0 0 0 0 
287745 0 21.0237 2.00762e+20 301.301 299.818 298.878 4997.19 -2.56858 -0.739441 2.00762e+20 0 0 0 0 0 
99329 0 20.8062 1.98685e+20 299.412 303.331 297.987 4999.94 -0.585457 0.71965 1.98685e+20 0 0 0 0 0 
164865 0 20.8263 1.98876e+20 300.688 300.15 296.497 5000.36 1.82165 0.624234 1.98876e+20 0 0 0 0 0 
230401 0 21.11 2.01586e+20 297.002 305.019 300.429 5001.19 -3.08819 -0.950286 2.01586e+20 0 0 0 0 0 
295937 0 20.9312 1.99879e+20 300.765 302.686 299.823 4998.01 -4.04425 2.07272 1.99879e+20 0 0 0 0 0 
75777 0 23.3687 2.23155e+20 300.792 299.808 298.331 5000.95 53.4186 -0.870862 2.23155e+20 0 0 0 0 0 
141313 0 23.6187 2.25542e+20 300.222 304.055 300.781 5000.2 54.995 -0.421058 2.25542e+20 0 0 0 0 0 
206849 0 21.0237 2.00762e+20 300.627 299.667 298.043 4997.97 3.08501 0.0620886 2.00762e+20 0 0 0 0 0 
272385 0 21.145 2.0192e+20 302.103 298.059 298.622 4996.29 5.75544 0.0424586 2.0192e+20 0 0 0 0 0 
83969 0 23.6675 2.26008e+20 298.719 300.14 298.327 5000.52 53.4673 -1.51072 2.26008e+20 0 0 0 0 0 
149505 0 23.4275 2.23716e+20 295.866 299.987 298.459 5001.16 52.6472 -3.19196 2.23716e+20 0 0 0 0 0 
215041 0 20.9525 2.00082e+20 303.565 298.794 297.378 4998.91 5.76049 2.98274 2.00082e+20 0 0 0 0 0 
280577 0 21.1425 2.01896e+20 301.223 296.358 300.167 4998.18 8.3846 -0.201184 2.01896e+20 0 0 0 0 0 
92161 0 20.7688 1.98327e+20 299.141 298.609 298.458 5003.26 0.4145 1.1172 1.98327e+20 0 0 0 0 0 
157697 0 20.745 1.981e+20 300.817 302.096 299.899 4999.92 -0.796891 2.32433 1.981e+20 0 0 0 0 0 
223233 0 21.0637 2.01144e+20 300.328 302.681 299.508 4998.53 -1.37144 -1.04062 2.01144e+20 0 0 0 0 0 
288769 0 21.0175 2.00702e+20 300.775 300.66 299.856 4999.78 -5.37482 1.73784 2.00702e+20 0 0 0 0 0 
100353 0 20.8225 1.9884e+20 302.35 298.981 296.046 5001.47 0.40652 -1.04968 1.9884e+20 0 0 0 0 0 
165889 0 20.74 1.98052e+20 299.614 300.23 297.484 5001.18 0.150209 -1.02404 1.98052e+20 0 0 0 0 0 
231425 0 21.005 2.00583e+20 300.967 301.187 299.696 4997.93 -0.52576 0.368793 2.00583e+20 0 0 0 0 0 
296961 0 21.0875 2.01371e+20 301.584 302.51 299.976 4998.93 -1.74897 -0.342858 2.01371e+20 0 0 0 0 0 
76801 0 20.9037 1.99616e+20 302.072 297.943 299.955 4999.78 -1.73437 2.58213 1.99616e+20 0 0 0 0 0 
142337 0 20.7963 1.9859e+20 301.31 300.121 298.986 5000.77 -0.698439 -2.22945 1.9859e+20 0 0 0 0 0 
207873 0 21.0063 2.00595e+20 298.4 295.674 298.623 4998.76 -1.15615 -0.223646 2.00595e+20 0 0 0 0 0 
273409 0 21.065 2.01156e+20 300.405 298.712 297.114 5000.51 0.475049 4.05169 2.01156e+20 0 0 0 0 0 
84993 0 20.8012 1.98637e+20 303.003 296.278 296.529 4999.92 -1.3977 1.90395 1.98637e+20 0 0 0 0 0 
150529 0 21.0287 2.0081e+20 303.386 299.701 301.876 4999.87 1.17072 0.236878 2.0081e+20 0 0 0 0 0 
216065 0 20.8125 1.98745e+20 297.912 298.556 298.541 5002.36 -1.1859 2.8571 1.98745e+20 0 0 0 0 0 
281601 0 21.0837 2.01335e+20 297.14 298.889 297.258 4999.1 0.193123 0.978951 2.01335e+20 0 0 0 0 0 
93185 0 21.0188 2.00714e+20 299.148 297.598 297.558 5000.2 -1.63191 1.26714 2.00714e+20 0 0 0 0 0 
158721 0 20.8875 1.99461e+20 298.109 297.227 298.787 5003.37 -0.0812709 0.827907 1.99461e+20 0 0 0 0 0 
224257 0 20.9187 1.99759e+20 299.55 299.664 297.06 5000.81 0.863691 -1.10373 1.99759e+20 0 0 0 0 0 
289793 0 20.9213 1.99783e+20 299.45 298.211 297.311 5003.69 -2.30063 -0.763279 1.99783e+20 0 0 0 0 0 
101377 0 21.0287 2.0081e+20 299.932 296.611 296.941 5001.29 -0.97704 3.9484 2.0081e+20 0 0 0 0 0 
166913 0 20.89 1.99485e+20 297.617 297.541 297.51 5001.11 1.19236 -1.29106 1.99485e+20 0 0 0 0 0 
232449 0 20.7737 1.98375e+20 299.387 298.497 297.384 5002.6 0.281061 0.670101 1.98375e+20 0 0 0 0 0 
297985 0 20.855 1.99151e+20 299.591 301.823 298.231 5000.5 -0.26994 -1.43623 1.99151e+20 0 0 0 0 0 
77825 0 20.7675 1.98315e+20 301.104 298.715 295.092 5000.59 0.278992 -1.44673 1.98315e+20 0 0 0 0 0 
143361 0 20.68 1.97479e+20 300.456 299.059 297.295 5001 0.0819197 2.17575 1.97479e+20 0 0 0 0 0 
208897 0 21.0113 2.00643e+20 300.589 297.904 296.384 5002.69 -3.59278 2.5638 2.00643e+20 0 0 0 0 0 
274433 0 20.6438 1.97133e+20 297.96 298.244 297.833 5000.73 -3.05577 1.6832 1.97133e+20 0 0 0 0 0 
86017 0 21.0212 2.00738e+20 303.864 299.48 300.552 4998.46 -0.739421 0.493376 2.00738e+20 0 0 0 0 0 
151553 0 20.8762 1.99354e+20 301.101 299.386 295.913 4999.53 -3.11119 0.99575 1.99354e+20 0 0 0 0 0 
217089 0 20.9763 2.00308e+20 300.96 296.807 297.21 5001.09 0.244398 0.68215 2.00308e+20 0 0 0 0 0 
282625 0 20.7838 1.9847e+20 299.56 298.162 296.798 5002.03 -1.6059 0.0662659 1.9847e+20 0 0 0 0 0 
94209 0 20.915 1.99724e+20 298.824 297.378 298.52 5003.53 0.194473 1.74261 1.99724e+20 0 0 0 0 0 
159745 0 20.97 2.00249e+20 299.051 297.598 297.954 4999.41 3.20164 0.400427 2.00249e+20 0 0 0 0 0 
225281 0 20.7613 1.98255e+20 297.585 298.698 298.653 5001.95 -0.42219 0.00474128 1.98255e+20 0 0 0 0 0 
290817 0 20.8825 1.99413e+20 298.028 301.218 296.418 5004.99 -1.53358 1.20258 1.99413e+20 0 0 0 0 0 
102401 0 21.0325 2.00846e+20 295.121 298.827 297.787 5001.54 -0.634481 0.487684 2.00846e+20 0 0 0 0 0 
167937 0 20.8788 1.99377e+20 298.914 300.931 297.027 5000.98 2.86789 0.415291 1.99377e+20 0 0 0 0 0 
233473 0 20.8475 1.99079e+20 296.581 304 298.298 5001.32 -4.12513 1.09278 1.99079e+20 0 0 0 0 0 
299009 0 20.8362 1.98972e+20 300.5 300.327 297.218 5001.96 -2.25829 0.780568 1.98972e+20 0 0 0 0 0 
74757 0 20.7575 1.9822e+20 298.103 297.904 296.595 4998.58 -3.95161 0.933194 1.9822e+20 0 0 0 0 0 
140293 0 20.48 1.9557e+20 295.456 292.518 298.003 5002.17 -0.666415 0.822097 1.9557e+20 0 0 0 0 0 
205829 0 20.8238 1.98852e+20 297.803 300.952 296.499 5000.43 0.128148 1.17399 1.98852e+20 0 0 0 0 0 
271365 0 20.9262 1.99831e+20 298.346 296.937 299.4 4999.76 2.70482 2.5346 1.99831e+20 0 0 0 0 0 
82949 0 20.695 1.97623e+20 298.481 296.215 296.55 5001.66 -1.10042 -0.745322 1.97623e+20 0 0 0 0 0 
148485 0 20.6663 1.97348e+20 301.929 294.132 296.592 5001.77 0.88984 -0.313664 1.97348e+20 0 0 0 0 0 
214021 0 20.8525 1.99127e+20 303.76 300.096 300.082 4999.76 1.62783 1.51358 1.99127e+20 0 0 0 0 0 
279557 0 20.8362 1.98972e+20 300.644 298.051 297.53 5002.38 0.27805 3.73615 1.98972e+20 0 0 0 0 0 
91141 0 21.3337 2.03722e+20 301.258 300.015 297.279 4996.5 5.07687 1.23774 2.03722e+20 0 0 0 0 0 
156677 0 21.1713 2.02171e+20 297.732 301.114 298.107 4999.84 6.1075 -0.619037 2.02171e+20 0 0 0 0 0 
222213 0 20.8163 1.98781e+20 300.53 297.427 297.67 5002.76 4.62595 0.316147 1.98781e+20 0 0 0 0 0 
287749 0 20.56 1.96334e+20 300.378 299.155 299.557 5002.23 3.62852 -1.78688 1.96334e+20 0 0 0 0 0 
99333 0 21.0575 2.01084e+20 301.123 301.245 297.766 4997.81 5.11373 -0.239815 2.01084e+20 0 0 0 0 0 
164869 0 21.1975 2.02421e+20 299.088 300.316 298.29 4997.6 3.83044 -1.08166 2.02421e+20 0 0 0 0 0 
230405 0 20.7875 1.98506e+20 301.288 300.034 298.438 5000.81 2.66023 0.292135 1.98506e+20 0 0 0 0 0 
295941 0 20.8325 1.98936e+20 302.18 300.513 297.057 5003.37 4.83123 0.0310462 1.98936e+20 0 0 0 0 0 
75781 0 20.36 1.94424e+20 296.607 297.775 297.176 4999.91 0.0143401 0.0297261 1.94424e+20 0 0 0 0 0 
141317 0 20.6638 1.97324e+20 299.47 296.664 295.226 5004.48 1.06698 -1.45472 1.97324e+20 0 0 0 0 0 
206853 0 20.8712 1.99306e+20 300.807 298.299 300.656 4998.11 1.0275 2.22431 1.99306e+20 0 0 0 0 0 
272389 0 20.895 1.99533e+20 302.261 298.077 297.917 4999.32 -0.248531 4.98171 1.99533e+20 0 0 0 0 0 
83973 0 20.4213 1.95009e+20 300.987 293.777 297.706 4998.9 0.453673 0.0859959 1.95009e+20 0 0 0 0 0 
149509 0 20.5475 1.96214e+20 298.949 298.083 296.821 5003.96 -0.40923 -4.22258 1.96214e+20 0 0 0 0 0 
215045 0 20.7675 1.98315e+20 301.132 300.586 297.368 4998.99 1.47876 3.18315 1.98315e+20 0 0 0 0 0 
280581 0 20.8875 1.99461e+20 299.946 299.43 299.403 4999.92 0.58369 4.23954 1.99461e+20 0 0 0 0 0 
92165 0 21.0275 2.00798e+20 299.223 300.665 297.261 4996.82 7.16921 -0.526696 2.00798e+20 0 0 0 0 0 
157701 0 20.9275 1.99843e+20 298.742 301.235 297.363 4997.95 3.18125 -1.1799 1.99843e+20 0 0 0 0 0 
223237 0 20.7213 1.97873e+20 299.925 302.296 297.957 5000.55 3.5256 -4.30943 1.97873e+20 0 0 0 0 0 
288773 0 20.68 1.97479e+20 301.411 300.039 297.86 5002.62 5.60326 1.59136 1.97479e+20 0 0 0 0 0 
100357 0 21.0738 2.01239e+20 297.519 300.402 297.97 4995.9 4.31233 -2.47467 2.01239e+20 0 0 0 0 0 
165893 0 20.95 2.00058e+20 300.126 302.416 298.357 4997.26 6.59514 -2.67394 2.00058e+20 0 0 0 0 0 
231429 0 20.705 1.97718e+20 298.598 302.546 299.371 5003.17 1.38006 -4.07928 1.97718e+20 0 0 0 0 0 
296965 0 20.7638 1.98279e+20 303.749 301.075 297.167 5000.1 5.81117 -0.644992 1.98279e+20 0 0 0 0 0 
76805 0 20.9237 1.99807e+20 300.406 301.133 300.346 5000.14 2.53963 -1.24682 1.99807e+20 0 0 0 0 0 
142341 0 20.8375 1.98983e+20 300.834 304.249 298.453 5001.64 1.17261 2.93594 1.98983e+20 0 0 0 0 0 
207877 0 20.7512 1.9816e+20 300.544 302.149 297.761 5001.89 -1.96679 1.10019 1.9816e+20 0 0 0 0 0 
273413 0 20.4713 1.95486e+20 299.851 298.348 297.686 5000.36 0.275499 -0.917997 1.95486e+20 0 0 0 0 0 
84997 0 20.6812 1.97491e+20 301.204 300.325 298.93 5003.35 0.336767 1.87511 1.97491e+20 0 0 0 0 0 
150533 0 20.8125 1.98745e+20 297.895 304.219 299.904 5000.58 2.94509 0.184615 1.98745e+20 0 0 0 0 0 
216069 0 20.7188 1.97849e+20 299.769 300.903 297.233 5001.5 -2.85747 -0.69428 1.97849e+20 0 0 0 0 0 
281605 0 20.7437 1.98088e+20 301.523 300.161 296.745 4997.66 0.883813 -1.49173 1.98088e+20 0 0 0 0 0 
93189 0 20.7613 1.98255e+20 301.869 293.319 299.458 5001.51 -2.15544 1.17365 1.98255e+20 0 0 0 0 0 
158725 0 20.755 1.98196e+20 298.523 298.363 297.74 5001.99 -2.24292 1.57066 1.98196e+20 0 0 0 0 0 
224261 0 20.7375 1.98029e+20 300.751 299.159 296.692 5004.01 -0.16953 2.48501 1.98029e+20 0 0 0 0 0 
289797 0 20.74 1.98052e+20 299.387 299.152 299.437 4999.34 1.20445 -1.19331 1.98052e+20 0 0 0 0 0 
101381 0 20.7075 1.97742e+20 302.332 292.297 299.138 5003.24 -1.47775 3.49129 1.97742e+20 0 0 0 0 0 
166917 0 20.6975 1.97647e+20 301.46 295.434 297.761 5002.6 -3.51381 2.07069 1.97647e+20 0 0 0 0 0 
232453 0 20.575 1.96477e+20 299.355 297.964 296.663 5002.11 0.880177 -0.269961 1.96477e+20 0 0 0 0 0 
297989 0 20.5837 1.9656e+20 300.966 300.209 299.002 5003.17 1.10662 -1.38837 1.9656e+20 0 0 0 0 0 
77829 0 20.8588 1.99186e+20 301.513 302.296 298.572 5000.99 -0.208697 1.04347 1.99186e+20 0 0 0 0 0 
143365 0 20.74 1.98052e+20 299.903 300.073 299.238 5004.51 1.9003 1.39714 1.98052e+20 0 0 0 0 0 
208901 0 20.485 1.95617e+20 300.643 300.404 297.418 5003.02 -2.15675 0.0546219 1.95617e+20 0 0 0 0 0 
274437 0 20.7312 1.97969e+20 301.98 299.048 297.713 5001.23 0.611806 -2.215 1.97969e+20 0 0 0 0 0 
86021 0 20.8163 1.98781e+20 300.142 303.873 298.1 4998.9 0.270274 1.96371 1.98781e+20 0 0 0 0 0 
151557 0 20.9088 1.99664e+20 302.593 300.736 298.749 5004.39 1.97556 1.10642 1.99664e+20 0 0 0 0 0 
217093 0 20.7913 1.98542e+20 301.325 298.503 298.349 4999.46 -1.67828 -1.77043 1.98542e+20 0 0 0 0 0 
282629 0 20.745 1.981e+20 302.131 302.247 296.172 5003.47 -0.541036 1.24394 1.981e+20 0 0 0 0 0 
94213 0 20.7975 1.98601e+20 297.958 296.84 297.916 5001.74 -1.13788 1.51606 1.98601e+20 0 0 0 0 0 
159749 0 20.6713 1.97396e+20 300.584 295.539 298.245 5003.26 -1.64615 3.34857 1.97396e+20 0 0 0 0 0 
225285 0 20.7075 1.97742e+20 299.026 298.882 298.805 5002.4 1.00923 -0.445539 1.97742e+20 0 0 0 0 0 
290821 0 20.4662 1.95438e+20 302.228 298.855 297.939 5002.92 1.95636 0.873142 1.95438e+20 0 0 0 0 0 
102405 0 20.7563 1.98208e+20 299.842 297.94 298.666 5000.7 -1.68467 0.927213 1.98208e+20 0 0 0 0 0 
167941 0 20.4138 1.94937e+20 299.046 295.705 296.393 5001.95 -0.960658 1.09292 1.94937e+20 0 0 0 0 0 
233477 0 20.4725 1.95498e+20 299.27 295.027 297.809 5002.35 0.29769 -1.95993 1.95498e+20 0 0 0 0 0 
299013 0 20.6737 1.9742e+20 299.44 297.119 297.319 5002.56 -0.657253 -2.06043 1.9742e+20 0 0 0 0 0 
74761 0 24.9163 2.37933e+20 7807.8 2300.55 784.159 4162.65 5.67978 -2.92984 2.37933e+20 0 0 0 0 0 
140297 0 61.84 5.90529e+20 14523.1 8929.59 4289.39 1669.64 -4.30127 24.2865 5.90529e+20 0 0 0 0 0 
205833 0 24.2937 2.31988e+20 7795.38 2306.11 811.795 4158.47 9.24232 -8.07506 2.31988e+20 0 0 0 0 0 
271369 0 61.475 5.87043e+20 14570.5 8935.68 4340.05 1637.46 1.06927 3.69661 5.87043e+20 0 0 0 0 0 
82953 0 123.325 1.17767e+21 12381.6 10132.2 8047.18 823.249 2.74992 10.7809 1.17767e+21 0 0 0 0 0 
148489 0 159.416 1.52231e+21 11517.5 10131 9371.68 615.142 9.0202 3.92875 1.52231e+21 0 0 0 0 0 
214025 0 123.255 1.177e+21 12292.5 10020.3 8063.59 797.359 19.5272 3.45606 1.177e+21 0 0 0 0 0 
279561 0 158.863 1.51703e+21 11569.9 10179.7 9373.52 594.776 7.60287 1.13191 1.51703e+21 0 0 0 0 0 
91145 0 24.2112 2.312e+20 7825.6 2314.96 783.304 4151.49 13.4032 1.53907 2.312e+20 0 0 0 0 0 
156681 0 62.3062 5.94981e+20 14592.8 8978.35 4396.05 1596.89 8.89592 2.5192 5.94981e+20 0 0 0 0 0 
222217 0 24.5825 2.34746e+20 7204.43 2162.44 712.873 4240.04 6.38279 -2.93327 2.34746e+20 0 0 0 0 0 
287753 0 63.7163 6.08445e+20 14455.9 8832.06 4366.91 1641.98 20.0796 16.5871 6.08445e+20 0 0 0 0 0 
99337 0 122.983 1.1744e+21 12311.4 10049.7 8060.1 798.309 14.2166 12.7734 1.1744e+21 0 0 0 0 0 
164873 0 159.688 1.5249e+21 11549.9 10183.5 9378.42 600.293 17.446 3.98565 1.5249e+21 0 0 0 0 0 
230409 0 124.316 1.18713e+21 12327.4 9997.02 8086.57 815.35 22.6661 6.54476 1.18713e+21 0 0 0 0 0 
295945 0 161.143 1.5388e+21 11578.9 10216.2 9374.91 613.294 26.9145 -3.14245 1.5388e+21 0 0 0 0 0 
75785 0 175.925 1.67996e+21 11183.1 10279.4 9754.84 531.287 3.8713 9.53034 1.67996e+21 0 0 0 0 0 
141321 0 186.394 1.77993e+21 11099.9 10328.1 10053.5 468.055 10.7584 13.1242 1.77993e+21 0 0 0 0 0 
206857 0 176.539 1.68582e+21 11235.8 10326.7 9865.48 514.967 17.0189 13.8873 1.68582e+21 0 0 0 0 0 
272393 0 188.512 1.80016e+21 11077.4 10334.8 10057.8 455.359 20.5046 6.09884 1.80016e+21 0 0 0 0 0 
83977 0 199.264 1.90283e+21 10936.6 10417.2 10057.6 402.464 15.6927 8.16191 1.90283e+21 0 0 0 0 0 
149513 0 210.789 2.01288e+21 10706.8 10490.2 10138.2 344.375 5.59177 1.96571 2.01288e+21 0 0 0 0 0 
215049 0 203.86 1.94672e+21 10926 10447.8 10144.9 387.977 18.7474 2.01365 1.94672e+21 0 0 0 0 0 
280585 0 213.574 2.03948e+21 10744.6 10422.9 10148.2 343.633 21.7082 3.81878 2.03948e+21 0 0 0 0 0 
92169 0 179.583 1.71489e+21 11212.1 10327.3 9880.79 502.593 32.1764 11.474 1.71489e+21 0 0 0 0 0 
157705 0 191.631 1.82994e+21 11130.4 10381.4 10095.6 438.815 36.4737 -3.27733 1.82994e+21 0 0 0 0 0 
223241 0 179.326 1.71244e+21 11231.5 10329.4 9912.34 517.362 38.3351 -2.04462 1.71244e+21 0 0 0 0 0 
288777 0 191.23 1.82611e+21 11136.1 10382 10131.6 459.572 41.6245 1.68972 1.82611e+21 0 0 0 0 0 
100361 0 202.991 1.93842e+21 10962.3 10424.5 10141.2 382.453 24.4673 1.7452 1.93842e+21 0 0 0 0 0 
165897 0 212.382 2.0281e+21 10752.2 10545.2 10191.5 337.201 32.8359 9.71347 2.0281e+21 0 0 0 0 0 
231433 0 202.999 1.9385e+21 10928.5 10493 10168.1 393.258 42.9768 1.00486 1.9385e+21 0 0 0 0 0 
296969 0 215.779 2.06054e+21 10790.9 10484.1 10238.1 337.51 40.1989 3.11383 2.06054e+21 0 0 0 0 0 
76809 0 24.67 2.35581e+20 7341.83 2130.31 697.38 4225.52 -1.82835 -13.8729 2.35581e+20 0 0 0 0 0 
142345 0 62.3237 5.95148e+20 14604.8 8966.02 4317 1659.02 16.6747 -2.16612 5.95148e+20 0 0 0 0 0 
207881 0 24.5775 2.34698e+20 7851.86 2381.43 757.405 4162.06 4.34296 -0.442455 2.34698e+20 0 0 0 0 0 
273417 0 62.7475 5.99194e+20 14571.1 8970.38 4397.07 1625.55 25.5824 -12.85 5.99194e+20 0 0 0 0 0 
85001 0 124.222 1.18624e+21 12380.6 9980.64 8117.91 817.389 31.0429 -1.69258 1.18624e+21 0 0 0 0 0 
150537 0 159.227 1.52051e+21 11623 10212.3 9406.17 608.467 36.9406 -3.02993 1.52051e+21 0 0 0 0 0 
216073 0 123.989 1.18401e+21 12412.9 10109.1 8247.42 792.696 48.1833 -2.96379 1.18401e+21 0 0 0 0 0 
281609 0 157.738 1.50628e+21 11628.7 10294.5 9465.98 588.187 52.855 -14.5855 1.50628e+21 0 0 0 0 0 
93193 0 24.4913 2.33874e+20 7787.17 2368.96 749.585 4158.93 -1.18453 -2.5266 2.33874e+20 0 0 0 0 0 
158729 0 61.8775 5.90887e+20 14689.4 8958.84 4378.2 1624.02 45.5507 -7.42813 5.90887e+20 0 0 0 0 0 
224265 0 24.515 2.34101e+20 8096.03 2427.41 749.353 4123 12.0457 8.58898 2.34101e+20 0 0 0 0 0 
289801 0 61.9338 5.91424e+20 14574.4 8861.39 4383.53 1634.72 51.7158 6.37886 5.91424e+20 0 0 0 0 0 
101385 0 121.275 1.15809e+21 12427.4 10120.8 8197.63 800.589 61.4822 -7.43503 1.15809e+21 0 0 0 0 0 
166921 0 156.857 1.49788e+21 11647.1 10270.9 9512.48 582.619 61.4955 -4.18557 1.49788e+21 0 0 0 0 0 
232457 0 123.828 1.18247e+21 12412.5 10106 8148.78 795.057 74.4748 5.88644 1.18247e+21 0 0 0 0 0 
297993 0 158.521 1.51377e+21 11628.3 10192 9465.28 591.212 79.556 4.69779 1.51377e+21 0 0 0 0 0 
77833 0 178.794 1.70735e+21 11327.8 10341.5 9880.33 511.847 47.568 -14.6991 1.70735e+21 0 0 0 0 0 
143369 0 192.847 1.84156e+21 11172.7 10371.1 10131.5 446.213 53.4509 -3.03908 1.84156e+21 0 0 0 0 0 
208905 0 178.664 1.70611e+21 11321.4 10394.4 9905.44 499.056 55.9402 -19.9489 1.70611e+21 0 0 0 0 0 
274441 0 192.352 1.83683e+21 11144.3 10426.5 10104.6 440.58 62.5777 -11.0068 1.83683e+21 0 0 0 0 0 
86025 0 203.373 1.94206e+21 10936.6 10528.7 10172 391.594 54.0358 17.6789 1.94206e+21 0 0 0 0 0 
151561 0 215.468 2.05756e+21 10719.9 10450.9 10255.1 334.194 55.8429 4.85035 2.05756e+21 0 0 0 0 0 
217097 0 205.643 1.96374e+21 10980.6 10561.3 10181.9 378.206 64.3659 -1.96681 1.96374e+21 0 0 0 0 0 
282633 0 216.227 2.06482e+21 10765.6 10546.7 10330.7 330.062 69.3486 1.74242 2.06482e+21 0 0 0 0 0 
94217 0 176.079 1.68143e+21 11332.1 10384 9995.23 490.363 65.9329 -1.95678 1.68143e+21 0 0 0 0 0 
159753 0 190.039 1.81474e+21 11136.1 10376.7 10098 425.419 77.103 -16.1527 1.81474e+21 0 0 0 0 0 
225289 0 177.116 1.69134e+21 11360.3 10373.9 9913.72 498.491 75.288 -5.94416 1.69134e+21 0 0 0 0 0 
290825 0 192.071 1.83415e+21 11124 10372 10050.7 430.023 83.5163 4.1425 1.83415e+21 0 0 0 0 0 
102409 0 203.205 1.94046e+21 10923.9 10519.7 10130.6 368.811 76.958 6.57814 1.94046e+21 0 0 0 0 0 
167945 0 215.32 2.05615e+21 10769.8 10622.2 10312.7 313.238 80.1007 -2.09886 2.05615e+21 0 0 0 0 0 
233481 0 207.625 1.98267e+21 10868.2 10469 10141.5 360.9 92.4395 -1.83863 1.98267e+21 0 0 0 0 0 
299017 0 218.197 2.08363e+21 10736.3 10487.3 10316.9 312.007 93.2084 -7.41246 2.08363e+21 0 0 0 0 0 
74785 0 20.9125 1.997e+20 298.488 298.171 299.648 5000.35 3.12446 -0.270175 1.997e+20 0 0 0 0 0 
140321 0 20.7662 1.98303e+20 301.665 301.067 298.318 4998.13 -2.3053 0.695496 1.98303e+20 0 0 0 0 0 
205857 0 20.9312 1.99879e+20 298.898 299.626 299.455 5000.45 -0.148929 1.20936 1.99879e+20 0 0 0 0 0 
271393 0 20.7638 1.98279e+20 300.617 299.569 298.259 5002.15 -1.60569 0.728685 1.98279e+20 0 0 0 0 0 
82977 0 20.8738 1.9933e+20 298.795 297.259 300.199 5000.16 0.428813 -0.299622 1.9933e+20 0 0 0 0 0 
148513 0 20.65 1.97193e+20 301.181 298.308 298.337 4998.75 1.78514 -0.841702 1.97193e+20 0 0 0 0 0 
214049 0 20.9887 2.00428e+20 301.692 302.203 298.135 5001.52 1.82297 1.2343 2.00428e+20 0 0 0 0 0 
279585 0 20.8663 1.99258e+20 300.812 297.745 298.021 4999.31 -1.66066 -1.6034 1.99258e+20 0 0 0 0 0 
91169 0 20.9013 1.99592e+20 300.868 296.763 297.321 5001.45 -2.38094 -2.2271 1.99592e+20 0 0 0 0 0 
156705 0 20.7425 1.98076e+20 300.632 300.747 297.808 5002.8 -2.77162 0.190619 1.98076e+20 0 0 0 0 0 
222241 0 20.65 1.97193e+20 303.433 302.412 297.216 5000.85 -1.14157 -0.829624 1.97193e+20 0 0 0 0 0 
287777 0 20.8175 1.98792e+20 303.977 298.892 297.523 5001.22 -0.34325 -1.5436 1.98792e+20 0 0 0 0 0 
99361 0 20.9688 2.00237e+20 300.589 301.098 297.523 4999.22 -3.21962 -3.54679 2.00237e+20 0 0 0 0 0 
164897 0 20.7712 1.98351e+20 301.874 297.436 296.74 4999.98 -3.97961 2.23194 1.98351e+20 0 0 0 0 0 
230433 0 20.8762 1.99354e+20 301.658 297.691 296.132 4999.45 0.135733 1.8566 1.99354e+20 0 0 0 0 0 
295969 0 20.6713 1.97396e+20 299.573 299.512 297.265 5000.43 1.39249 -2.09969 1.97396e+20 0 0 0 0 0 
75809 0 20.86 1.99198e+20 299.509 298.149 297.618 5000.93 -2.84289 -0.00249249 1.99198e+20 0 0 0 0 0 
141345 0 20.8388 1.98995e+20 299.64 297.295 299.745 4998.64 2.02116 -1.01435 1.98995e+20 0 0 0 0 0 
206881 0 20.8275 1.98888e+20 303.814 299.396 297.659 5003.72 3.01991 0.963124 1.98888e+20 0 0 0 0 0 
272417 0 20.8663 1.99258e+20 301.858 299.785 299.036 4998.26 0.838723 -1.91122 1.99258e+20 0 0 0 0 0 
84001 0 20.665 1.97336e+20 298.753 296.92 298.79 5000.7 -1.01728 -0.120777 1.97336e+20 0 0 0 0 0 
149537 0 20.8588 1.99186e+20 299.79 294.273 299.601 5000.7 -0.459509 -1.3517 1.99186e+20 0 0 0 0 0 
215073 0 20.7812 1.98446e+20 301.056 298.519 298.349 5001.81 1.81789 0.626305 1.98446e+20 0 0 0 0 0 
280609 0 20.7638 1.98279e+20 298.99 301.941 297.223 5001.36 2.80264 1.04732 1.98279e+20 0 0 0 0 0 
92193 0 20.7237 1.97897e+20 300.99 300.993 298.653 5001.64 -2.35184 -1.44164 1.97897e+20 0 0 0 0 0 
157729 0 21.075 2.01251e+20 303.297 296.949 296.396 5001.56 -4.214 -2.31461 2.01251e+20 0 0 0 0 0 
223265 0 20.73 1.97957e+20 302.644 298.329 297.066 4999.95 -0.536265 0.811301 1.97957e+20 0 0 0 0 0 
288801 0 20.7112 1.97778e+20 300.023 299.371 295.868 5000.32 0.165938 -0.273975 1.97778e+20 0 0 0 0 0 
100385 0 20.6088 1.96799e+20 304.411 299.109 297.952 4999.91 -5.46525 2.269 1.96799e+20 0 0 0 0 0 
165921 0 20.8837 1.99425e+20 302.561 298.916 298.244 5003.52 -3.24226 0.0585239 1.99425e+20 0 0 0 0 0 
231457 0 20.7237 1.97897e+20 300.946 300.102 297.409 4999.81 -1.45657 -1.4633 1.97897e+20 0 0 0 0 0 
296993 0 20.7025 1.97694e+20 301.648 296.685 295.348 5002.28 -1.30224 1.13911 1.97694e+20 0 0 0 0 0 
76833 0 20.7288 1.97945e+20 295.991 300.742 298.35 5000.39 -2.19709 1.24907 1.97945e+20 0 0 0 0 0 
142369 0 20.9575 2.00129e+20 298.332 299.514 299.129 5000.83 -1.13961 -0.876427 2.00129e+20 0 0 0 0 0 
207905 0 20.9812 2.00356e+20 302.657 300.605 297.304 5001.87 -2.26996 3.05805 2.00356e+20 0 0 0 0 0 
273441 0 20.8525 1.99127e+20 298.912 302.646 298.239 5003.28 -3.19662 2.61851 1.99127e+20 0 0 0 0 0 
85025 0 20.75 1.98148e+20 299.661 296.8 298.118 4999.87 -0.303236 -0.296867 1.98148e+20 0 0 0 0 0 
150561 0 20.92 1.99771e+20 300.234 300.585 298.838 5002.14 -0.00242402 -0.746783 1.99771e+20 0 0 0 0 0 
216097 0 20.65 1.97193e+20 301.362 302.74 295.585 5001.67 -1.70779 3.54502 1.97193e+20 0 0 0 0 0 
281633 0 20.9488 2.00046e+20 300.193 299.838 297.035 5000.48 -0.888951 2.48202 2.00046e+20 0 0 0 0 0 
93217 0 20.9475 2.00034e+20 299.316 297.305 297.903 4999.95 1.06368 2.15593 2.00034e+20 0 0 0 0 0 
158753 0 20.8463 1.99067e+20 299.946 300.352 297.74 5003.11 0.561738 1.66306 1.99067e+20 0 0 0 0 0 
224289 0 20.785 1.98482e+20 298.623 301.038 298.515 5001.81 -2.43717 0.656845 1.98482e+20 0 0 0 0 0 
289825 0 20.7625 1.98267e+20 298.858 301.994 297.469 5002.56 2.40127 4.50665 1.98267e+20 0 0 0 0 0 
101409 0 20.8725 1.99318e+20 298.8 297.979 298.703 5000.75 0.271351 3.25189 1.99318e+20 0 0 0 0 0 
166945 0 20.8463 1.99067e+20 300.549 300.876 297.645 5002.26 -0.681595 -0.351251 1.99067e+20 0 0 0 0 0 
232481 0 20.5 1.95761e+20 300.009 299.677 298.157 5002.04 -1.09216 1.32333 1.95761e+20 0 0 0 0 0 
298017 0 20.9025 1.99604e+20 300.787 302.518 298.985 5001.67 -4.51697 2.71607 1.99604e+20 0 0 0 0 0 
77857 0 21.0562 2.01072e+20 300.599 299.913 300.28 5001.13 -0.0565762 -1.14333 2.01072e+20 0 0 0 0 0 
143393 0 21 2.00535e+20 300.218 300.157 297.324 5000.51 -0.373737 0.596671 2.00535e+20 0 0 0 0 0 
208929 0 20.5775 1.96501e+20 299.797 300.923 298.747 4999.64 -1.89152 4.75845 1.96501e+20 0 0 0 0 0 
274465 0 20.6388 1.97086e+20 299.841 301.117 295.498 5000.54 0.821717 0.551224 1.97086e+20 0 0 0 0 0 
86049 0 20.9262 1.99831e+20 298.166 299.918 299.897 5002.22 -0.401062 -1.10896 1.99831e+20 0 0 0 0 0 
151585 0 20.9688 2.00237e+20 300.811 301.885 299.038 5001.81 0.669682 -0.0452328 2.00237e+20 0 0 0 0 0 
217121 0 20.7112 1.97778e+20 299.894 297.972 297.063 5000.99 -1.81428 3.13987 1.97778e+20 0 0 0 0 0 
282657 0 20.4638 1.95414e+20 297.699 301.172 296.98 5000.25 -0.88877 2.62823 1.95414e+20 0 0 0 0 0 
94241 0 20.8425 1.99031e+20 300.128 297.307 297.768 5004.18 0.553284 3.5161 1.99031e+20 0 0 0 0 0 
159777 0 20.8875 1.99461e+20 298.501 300.048 297.895 5002.29 -0.543506 2.50709 1.99461e+20 0 0 0 0 0 
225313 0 20.7087 1.97754e+20 300.915 298.35 296.811 5002.44 0.961709 2.55453 1.97754e+20 0 0 0 0 0 
290849 0 20.8637 1.99234e+20 300.359 302.385 298.082 5002.75 0.131835 -0.0329126 1.99234e+20 0 0 0 0 0 
102433 0 20.8513 1.99115e+20 297.274 300.862 299.484 5000.7 1.62954 -0.558848 1.99115e+20 0 0 0 0 0 
167969 0 20.86 1.99198e+20 298.019 300.761 299.164 5003.31 -1.82243 2.97138 1.99198e+20 0 0 0 0 0 
233505 0 20.955 2.00106e+20 301.788 303.63 298.419 5001.4 -0.59832 3.11696 2.00106e+20 0 0 0 0 0 
299041 0 20.5925 1.96644e+20 302.441 299.225 298.696 5001.16 -0.88774 1.18064 1.96644e+20 0 0 0 0 0 
74789 0 20.6825 1.97503e+20 297.172 299.222 298.259 5001.95 -1.29608 -1.45283 1.97503e+20 0 0 0 0 0 
140325 0 20.45 1.95283e+20 298.749 300.458 300.656 5004.53 -2.28414 -0.168454 1.95283e+20 0 0 0 0 0 
205861 0 20.8663 1.99258e+20 303.292 301.577 299.218 4999.72 -2.46424 1.59762 1.99258e+20 0 0 0 0 0 
271397 0 20.8925 1.99509e+20 303.147 300.602 297.786 4998.19 -0.801615 1.15746 1.99509e+20 0 0 0 0 0 
82981 0 20.64 1.97097e+20 297.98 300.7 299.144 5001.95 -1.14474 -0.732926 1.97097e+20 0 0 0 0 0 
148517 0 20.4363 1.95152e+20 298.251 301.045 299.324 5003.5 -3.39885 1.67099 1.95152e+20 0 0 0 0 0 
214053 0 20.7787 1.98422e+20 300.591 301.897 298.152 5002.17 -2.01461 -2.11625 1.98422e+20 0 0 0 0 0 
279589 0 20.7488 1.98136e+20 302.205 299.597 298.252 4998.58 -0.349853 1.53424 1.98136e+20 0 0 0 0 0 
91173 0 20.5012 1.95773e+20 302.378 296.621 298.049 4999.11 1.3605 -0.593379 1.95773e+20 0 0 0 0 0 
156709 0 20.5375 1.96119e+20 302.227 296.586 297.296 5002.06 4.01786 0.692422 1.96119e+20 0 0 0 0 0 
222245 0 20.4563 1.95343e+20 295.981 299.605 296.692 5001.23 -1.36858 3.84676 1.95343e+20 0 0 0 0 0 
287781 0 20.4225 1.95021e+20 297.318 297.711 297.821 5000.35 -2.29984 3.47241 1.95021e+20 0 0 0 0 0 
99365 0 20.6913 1.97587e+20 302.34 299.106 297.174 4998.24 -2.33847 -2.53412 1.97587e+20 0 0 0 0 0 
164901 0 20.4025 1.9483e+20 304.76 298.132 297.814 5000.09 3.14466 -1.35705 1.9483e+20 0 0 0 0 0 
230437 0 20.3775 1.94591e+20 297.661 296.783 296.952 5001.48 -2.45553 2.80034 1.94591e+20 0 0 0 0 0 
295973 0 20.385 1.94662e+20 297.935 298.369 297.582 5002.03 0.117106 2.49357 1.94662e+20 0 0 0 0 0 
75813 0 20.5862 1.96584e+20 298.718 298.187 299.025 5002.19 -0.656482 0.707492 1.96584e+20 0 0 0 0 0 
141349 0 20.5525 1.96262e+20 300.835 300.098 298.407 5002.98 -0.408748 1.08765 1.96262e+20 0 0 0 0 0 
206885 0 20.7488 1.98136e+20 302.62 302.23 298.383 4999.88 -3.63771 -1.05938 1.98136e+20 0 0 0 0 0 
272421 0 20.87 1.99294e+20 301.664 299.304 299.047 5000.46 -2.14155 -1.53207 1.99294e+20 0 0 0 0 0 
84005 0 20.34 1.94233e+20 300.536 297.197 298.156 5003.86 -0.667603 2.40062 1.94233e+20 0 0 0 0 0 
149541 0 20.8287 1.989e+20 300.042 299.953 298.337 5000.62 -2.16281 -0.824281 1.989e+20 0 0 0 0 0 
215077 0 20.4775 1.95546e+20 301.276 303.752 298.028 4999.43 -2.84613 -4.56611 1.95546e+20 0 0 0 0 0 
280613 0 20.63 1.97002e+20 300.691 300.564 298.517 5000.51 -1.47432 0.907325 1.97002e+20 0 0 0 0 0 
92197 0 20.5813 1.96536e+20 299.264 299.453 297.542 5002.66 4.71011 1.52865 1.96536e+20 0 0 0 0 0 
157733 0 20.6938 1.97611e+20 303.863 299.831 297.851 4999.25 0.00885087 -2.04981 1.97611e+20 0 0 0 0 0 
223269 0 20.5275 1.96023e+20 298.46 293.785 295.609 5003.39 -2.60708 3.40621 1.96023e+20 0 0 0 0 0 
288805 0 20.3575 1.944e+20 298.391 296.668 296.976 5002.29 -2.59309 4.40209 1.944e+20 0 0 0 0 0 
100389 0 20.7087 1.97754e+20 299.796 298.571 298.046 4999.14 2.80809 1.84963 1.97754e+20 0 0 0 0 0 
165925 0 20.825 1.98864e+20 302.61 300.565 297.556 5000.35 4.31228 0.915335 1.98864e+20 0 0 0 0 0 
231461 0 20.5487 1.96226e+20 299.261 293.377 296.219 5001.04 2.24855 3.23677 1.96226e+20 0 0 0 0 0 
296997 0 20.2613 1.93481e+20 298.413 296.488 296.224 5002.5 -4.55842 0.379359 1.93481e+20 0 0 0 0 0 
76837 0 20.4763 1.95534e+20 300.543 299.159 298.746 5000.58 -0.429833 2.81455 1.95534e+20 0 0 0 0 0 
142373 0 20.4913 1.95677e+20 298.491 298.689 298.01 5003.82 -0.0353305 0.681017 1.95677e+20 0 0 0 0 0 
207909 0 20.6812 1.97491e+20 299.587 302.056 299.814 5002 0.25437 1.02703 1.97491e+20 0 0 0 0 0 
273445 0 20.7263 1.97921e+20 302.036 301.503 298.136 4996.17 -1.50261 -2.45215 1.97921e+20 0 0 0 0 0 
85029 0 20.3412 1.94245e+20 299.039 297.017 301.774 5000.8 -1.44521 1.33182 1.94245e+20 0 0 0 0 0 
150565 0 20.4337 1.95128e+20 296.981 303.047 298.877 5000.3 -1.56565 2.40583 1.95128e+20 0 0 0 0 0 
216101 0 20.775 1.98387e+20 299.167 300.308 300.895 4997.83 0.0743475 2.89184 1.98387e+20 0 0 0 0 0 
281637 0 20.6988 1.97659e+20 300.029 300.082 298.562 4999.68 0.256395 0.641311 1.97659e+20 0 0 0 0 0 
93221 0 20.3825 1.94639e+20 299.899 302.141 297.55 5002.36 1.99223 2.10921 1.94639e+20 0 0 0 0 0 