ITEM: TIMESTEP
15000
ITEM: NUMBER OF SURFS
134
ITEM: BOX BOUNDS oo ao pp
-2.5 5
0 5
-0.0005 0.0005
ITEM: SURFS id f_avg_pressure[1] f_avg_pressure[2] f_avg_pressure[3] f_avg_pressure[4] f_avg_shear[1] f_avg_shear[2] f_avg_shear[3] f_avg_heat_flux[*] 
1 332.628 332.411 12.0325 0 -0.125872 3.47736 0.0185622 203842 
5 311.787 311.785 -1.03559 0 0.0155773 4.68985 -3.0692 246338 
9 314.718 314.429 -13.4822 0 0.0220527 0.514308 2.07928 188075 
13 303.174 302.146 -24.9426 0 0.463364 5.61302 0.000257968 220129 
17 321.599 319.214 -39.0955 0 1.92403 15.7096 -1.99927 194715 
21 308.489 304.481 -49.5673 0 3.09402 19.0059 5.25929 198299 
25 296.525 290.561 -59.171 0 3.07263 15.0882 -2.02373 179751 
29 279.39 271.354 -66.5236 0 5.26314 21.4687 0.0720193 202654 
33 286.859 275.693 -79.2542 0 7.57337 26.3447 -3.91611 175794 
37 279.449 265.313 -87.755 0 10.4463 31.5827 -1.27264 189554 
41 267.803 250.735 -94.0749 0 12.2841 32.7405 -1.11501 180402 
45 241.813 222.87 -93.8215 0 13.8582 32.9197 4.59265 187069 
49 219.742 199.002 -93.1928 0 17.3323 37.0109 2.18093 164185 
53 64.1651 30.3241 -56.5474 0 22.7937 12.2233 -0.862416 60072 
57 9.67889 -2.69282 -9.29676 0 4.87544 -1.41218 -0.492581 6440.79 
61 3.22422 -1.73208 -2.71947 0 1.93242 -1.2308 -0.574166 3783.66 
65 3.21065 -1.72479 -2.70802 0 2.11409 -1.3465 -1.09316 3025.21 
69 1.65951 -0.891487 -1.39972 0 1.43366 -0.913103 0.50343 3818.05 
73 2.71894 -1.46064 -2.29329 0 1.37936 -0.878541 0.605014 4019.41 
77 1.67129 -0.897818 -1.40966 0 0.388037 -0.247142 -0.0374026 416.369 
81 1.50185 -0.806808 -1.26674 0 0.827208 -0.526864 -0.134032 767.077 
85 2.88275 -1.54864 -2.43145 0 0.786919 -0.501204 0.318846 1640.61 
89 2.66615 -1.43229 -2.24876 0 1.11374 -0.709369 0.561468 1693.96 
93 2.41625 -1.29806 -2.03796 0 0.948577 -0.604187 0.233431 892.434 
97 1.7843 -0.958558 -1.50495 0 0.251244 -0.160026 -0.220149 826.12 
101 2.28806 -1.22916 -1.92987 0 0.702344 -0.447332 0.522168 1280.61 
105 2.72512 -1.46395 -2.29851 0 0.0386923 -0.0246435 0.111981 2085.14 
109 2.55594 -1.37306 -2.15581 0 0.33197 -0.211436 -0.865617 1511.09 
113 4.80137 -2.57933 -4.04972 0 0.448912 -0.285919 -0.0783047 2595.68 
117 2.70115 -2.70115 0 0 0 -0.0937216 0.3592 1251.6 
121 3.81388 -3.81388 0 0 0 -0.116723 0.0125838 1835.4 
125 4.62903 -4.62903 0 0 0 -0.12737 -0.279168 1720.43 
129 5.14466 -5.14466 0 0 0 0.317775 -0.113009 1476.79 
133 5.5198 -5.5198 0 0 0 -0.22076 -0.122021 2466.31 
2 322.709 322.597 8.48466 0 -0.163646 6.22204 2.342 202297 
6 311.358 311.331 -4.11097 0 0.0366914 2.7787 0.811985 215579 
10 315.481 315.042 -16.6254 0 0.37957 7.19263 1.98005 204529 
14 307.778 306.47 -28.3449 0 1.1966 12.9379 1.61474 238465 
18 315.668 312.933 -41.4685 0 1.89137 14.2728 0.178204 220929 
22 306.799 302.31 -52.2913 0 3.23491 18.7019 -1.7024 203769 
26 295.126 288.595 -61.7441 0 4.72678 22.0932 2.94724 210944 
30 286.195 277.278 -70.8838 0 5.2105 20.382 -1.16523 210276 
34 279.584 267.926 -79.8913 0 8.85945 29.7114 -2.52445 219223 
38 271.441 256.855 -87.7809 0 10.256 30.0101 4.19248 208118 
42 263.558 245.835 -95.0164 0 14.2727 36.9276 -0.361774 215725 
46 237.996 218.429 -94.5042 0 14.1302 32.6593 -1.08409 166296 
50 197.055 173.127 -94.1148 0 24.2085 44.5322 -1.77982 171120 
54 42.0652 12.3783 -40.2027 0 18.7721 5.77987 -0.730426 40640.7 
58 7.47763 -3.42313 -6.6481 0 3.74628 -1.92897 0.267668 6866.8 
62 4.06378 -2.18309 -3.4276 0 3.03817 -1.93506 -0.104647 5395.36 
66 2.45906 -1.321 -2.07411 0 1.17521 -0.748488 -1.30821 1862.96 
70 1.84986 -0.993758 -1.56026 0 0.637619 -0.406111 0.455014 531.936 
74 4.67922 -2.51372 -3.94669 0 2.74581 -1.74886 -0.855281 5211.06 
78 2.81881 -1.51433 -2.3775 0 0.572194 -0.364454 0.0890973 2722.73 
82 2.1591 -1.15992 -1.82107 0 0.84506 -0.538254 -0.373213 1274.46 
86 2.21798 -1.19153 -1.87075 0 1.02718 -0.654235 0.717706 1436.71 
90 1.74098 -0.935269 -1.46843 0 0.377702 -0.240565 -0.471805 1058.93 
94 2.33862 -1.25632 -1.97251 0 0.339309 -0.21611 0.630917 2199.13 
98 1.76638 -0.94891 -1.48986 0 0.11491 -0.0731876 0.878954 535.601 
102 3.13428 -1.68375 -2.64362 0 0.624888 -0.397999 0.319865 1769.6 
106 2.6801 -1.43976 -2.26053 0 0.258787 -0.164825 0.308699 1608.28 
110 3.7643 -2.0222 -3.17501 0 0.472735 -0.30109 -0.130402 2540.98 
114 3.97077 -2.13314 -3.34914 0 0.500762 -0.318946 0.0731098 2167.87 
118 3.56797 -3.56797 0 0 0 -0.0223639 -0.286677 1099.14 
122 2.63627 -2.63627 0 0 0 0.464278 0.000944317 1087.53 
126 4.80576 -4.80576 0 0 0 -0.243239 -0.0519592 2477.27 
130 5.62518 -5.62518 0 0 0 -0.3887 0.392707 2511.98 
134 5.56139 -5.56139 0 0 0 0.382723 0.18397 3354.89 
3 320.859 320.815 5.2692 0 -0.0432076 2.6307 -2.86627 226763 
7 311.856 311.773 -7.20054 0 0.137025 5.93298 0.90029 191578 
11 310.316 309.708 -19.4147 0 0.617593 9.85198 -1.84764 206474 
15 315.478 313.835 -32.1595 0 1.3842 13.5079 -3.35671 257860 
19 302.026 299.001 -42.6328 0 3.24849 22.783 0.0435226 226265 
23 311.135 306.045 -56.0493 0 4.52788 24.7235 -0.0467419 235877 
27 298.248 291.016 -65.2798 0 6.43549 28.6893 4.03322 239047 
31 289.052 279.325 -74.3567 0 6.36019 23.8924 -1.58264 200707 
35 281.309 268.772 -83.045 0 8.44442 27.33 -0.0876989 188464 
39 271.942 256.447 -90.4831 0 9.85199 27.9226 -0.541595 185441 
43 259.112 240.753 -95.7969 0 11.9373 30.0003 -1.96931 182389 
47 228.346 208.666 -92.7383 0 18.1432 40.8233 4.61049 179856 
51 142.696 109.921 -90.9916 0 26.5135 32.0293 -0.0284256 125317 
55 28.7067 3.01301 -28.5482 0 12.3758 1.30615 -0.458485 25137.4 
59 4.28796 -2.30353 -3.61668 0 1.94204 -1.23692 -0.114316 3390.5 
63 0.803116 -0.431434 -0.677392 0 0.483639 -0.308032 0.0153035 773.082 
67 4.59958 -2.47093 -3.87952 0 2.20088 -1.40178 0.22531 6076.51 
71 2.92379 -1.57071 -2.46605 0 1.5364 -0.978583 0.848895 4246.27 
75 3.66811 -1.97055 -3.09385 0 2.77342 -1.76646 0.860479 4909.88 
79 1.39687 -0.750412 -1.17819 0 0.885135 -0.563759 -0.0167937 1600.45 
83 2.27434 -1.22177 -1.9183 0 0.892384 -0.568361 -0.0745469 1618.9 
87 2.32117 -1.24695 -1.95779 0 0.697822 -0.444455 -0.544457 1694.75 
91 2.8627 -1.53787 -2.41454 0 1.03911 -0.66183 0.35209 2900.92 
95 2.49389 -1.33973 -2.10348 0 0.843559 -0.537274 -0.205096 2906.59 
99 3.64369 -1.95741 -3.07327 0 0.867249 -0.552362 -0.658363 2886.36 
103 2.63938 -1.41789 -2.22619 0 0.719615 -0.458333 -0.209375 779.522 
107 2.44461 -1.31329 -2.06189 0 0.248046 -0.157989 -0.229859 1411.3 
111 3.97826 -2.1372 -3.35543 0 0.864385 -0.55056 0.237515 2325.7 
115 4.02189 -2.16059 -3.39226 0 0.435 -0.277059 0.0867633 2347.51 
119 3.69091 -3.69091 0 0 0 0.444671 0.443056 1485.12 
123 3.61191 -3.61191 0 0 0 0.018355 -0.441363 1974.77 
127 4.76378 -4.76378 0 0 0 -0.514619 -0.53164 3202.29 
131 4.83683 -4.83683 0 0 -1.54032e-15 0.193016 0.198226 2449.41 
4 316.94 316.933 2.07351 0 -0.0531003 8.11629 -4.21606 245039 
8 312.231 312.062 -10.289 0 0.1808 5.4836 -2.49298 194665 
12 305.298 304.496 -22.106 0 0.59236 8.15937 -2.75056 216795 
16 311.867 309.913 -34.855 0 1.6074 14.2921 -2.62533 230277 
20 306.782 303.269 -46.2971 0 2.75706 18.0601 -2.79963 254463 
24 302.533 297.03 -57.436 0 4.269 22.0772 -1.07502 239287 
28 287.376 279.775 -65.6581 0 5.10734 21.7628 0.835673 183394 
32 286.846 276.451 -76.5211 0 8.39753 30.3381 -0.184658 235837 
36 277.974 264.762 -84.6797 0 10.6191 33.202 0.432655 213831 
40 267.721 251.576 -91.5646 0 13.0753 35.9247 2.44532 219979 
44 253.87 234.942 -96.1881 0 14.1428 34.5443 7.17002 192910 
48 231.999 211.064 -96.3081 0 18.7347 41.0581 -0.640536 176714 
52 101.594 64.3375 -78.6261 0 25.3841 20.7711 0.763719 94473.1 
56 15.1617 -1.33883 -15.1025 0 7.57613 -0.671621 -0.081663 14618.9 
60 3.38808 -1.82012 -2.85767 0 1.61105 -1.02612 0.591941 4118.96 
64 2.4945 -1.34011 -2.10396 0 0.244042 -0.155442 -0.939906 1762.72 
68 3.85493 -2.07095 -3.25141 0 2.41891 -1.5407 -1.86452 5445.65 
72 3.66816 -1.97056 -3.09391 0 1.56089 -0.994152 -0.508285 3582.91 
76 1.28073 -0.688019 -1.08023 0 1.21795 -0.775737 -0.00860212 2335.31 
80 3.17745 -1.70692 -2.68003 0 1.13263 -0.721373 0.117789 3400.9 
84 1.82877 -0.98243 -1.54247 0 0.529867 -0.337482 0.0649031 1319.37 
88 2.28273 -1.22631 -1.92537 0 0.554828 -0.353381 0.546171 1134.86 
92 2.57445 -1.38299 -2.17143 0 0.745348 -0.474713 0.0573512 2221.88 
96 1.96 -1.05292 -1.65317 0 0.664916 -0.423493 -0.0520086 1924.46 
100 2.6559 -1.4268 -2.2401 0 0.690764 -0.439972 -0.0118234 2071.88 
104 2.99526 -1.60911 -2.52633 0 0.295983 -0.188523 0.157488 1765.97 
108 3.77368 -2.02724 -3.18291 0 1.03451 -0.658891 -0.187653 2329.38 
112 2.72222 -1.46239 -2.29606 0 0.300856 -0.191619 -0.363413 1395.22 
116 3.90666 -2.09869 -3.29507 0 0.217705 -0.138661 0.334939 1813.65 
120 3.82394 -3.82394 0 0 0 0.724263 -0.113414 1315.96 
124 4.63852 -4.63852 0 0 0 0.103022 0.633896 1250.6 
128 5.42558 -5.42558 0 0 0 -0.240239 -0.513467 2648.37 
132 6.34682 -6.34682 0 0 0 0.106326 -0.144389 3101.91 
