ITEM: TIMESTEP
22000
ITEM: NUMBER OF SURFS
134
ITEM: BOX BOUNDS oo ao pp
-2.5 5
0 5
-0.0005 0.0005
ITEM: SURFS id f_avg_pressure[1] f_avg_pressure[2] f_avg_pressure[3] f_avg_pressure[4] f_avg_shear[1] f_avg_shear[2] f_avg_shear[3] f_avg_heat_flux[*] 
1 341.909 341.685 12.3682 0 0.0469418 -1.29682 0.811307 165178 
5 345.126 345.124 -1.14633 0 0.0149875 4.51227 -0.53296 215477 
9 343.449 343.134 -14.713 0 0.1933 4.50811 -0.345339 166860 
13 338.247 337.101 -27.8282 0 0.624835 7.56901 1.51264 189283 
17 342.667 340.125 -41.6566 0 1.31633 10.7478 -0.870378 154163 
21 337.184 332.803 -54.1779 0 2.29337 14.0877 1.70966 166455 
25 323.3 316.798 -64.514 0 3.20036 15.7154 -2.72099 148701 
29 313.087 304.083 -74.5472 0 5.18713 21.1586 0.274918 178330 
33 312.991 300.808 -86.4739 0 6.34847 22.0838 -3.25681 146932 
37 303.147 287.812 -95.1969 0 8.28847 25.0588 -1.56447 155710 
41 287.355 269.041 -100.943 0 9.89286 26.3671 -1.73998 146471 
45 260.599 240.184 -101.11 0 13.8054 32.7943 1.39841 153674 
49 231.199 209.377 -98.0517 0 17.4574 37.2782 2.42597 138054 
53 73.5338 34.7517 -64.8038 0 24.4791 13.1272 -0.63374 52536.7 
57 11.4625 -3.18906 -11.01 0 5.2658 -1.52525 -0.105225 6943.1 
61 4.52775 -2.43235 -3.81893 0 2.78417 -1.77329 -0.0986459 4291.06 
65 4.66749 -2.50741 -3.93679 0 1.90564 -1.21374 -0.285564 3324.43 
69 2.44784 -1.31498 -2.06464 0 1.60647 -1.02317 0.640735 3343.38 
73 5.52422 -2.96766 -4.6594 0 2.10495 -1.34068 0.122757 3887.28 
77 3.71618 -1.99633 -3.13443 0 0.940435 -0.598966 0.404285 1826.37 
81 4.00958 -2.15398 -3.38188 0 1.0105 -0.643603 0.344668 2361.83 
85 4.65446 -2.50042 -3.9258 0 1.09613 -0.698149 0.287503 2059.81 
89 3.7411 -2.00976 -3.15542 0 1.04989 -0.668703 0.127593 1729.66 
93 4.58314 -2.46216 -3.86561 0 1.01812 -0.648485 0.0961284 2095.54 
97 3.72876 -2.00316 -3.145 0 0.827699 -0.527191 -0.137021 1614.41 
101 4.55933 -2.4493 -3.84558 0 1.17637 -0.749244 -0.0223601 2430.37 
105 4.13941 -2.22371 -3.49139 0 0.443058 -0.282189 -0.176334 1667.93 
109 3.68457 -1.97937 -3.10776 0 0.775898 -0.494179 -0.356235 1427.08 
113 4.55494 -2.44695 -3.84187 0 0.41943 -0.267142 0.172806 1710.28 
117 2.43974 -2.43974 0 0 0 -0.360099 0.270758 966.495 
121 4.58515 -4.58515 0 0 0 0.311614 -0.113971 1420.72 
125 5.74144 -5.74144 0 0 0 0.0285782 0.00690714 1392.02 
129 6.46442 -6.46442 0 0 0 0.289414 -0.0579965 1775.78 
133 7.11241 -7.11241 0 0 0 0.191794 0.111633 1706.14 
2 345.373 345.254 9.08055 0 -0.0722336 2.74641 1.78616 165036 
6 342.116 342.086 -4.51708 0 0.0470882 3.56607 3.10526 185477 
10 344.733 344.254 -18.167 0 0.345526 6.54751 1.11319 172891 
14 337.413 335.979 -31.0742 0 1.14045 12.3307 -2.47114 196268 
18 339.344 336.403 -44.5787 0 1.86911 14.1048 -1.63943 178429 
22 332.329 327.466 -56.6426 0 2.80282 16.2039 -0.336081 166676 
26 323.552 316.392 -67.6912 0 4.28775 20.0411 2.04554 176883 
30 317.631 307.734 -78.6698 0 5.68429 22.2353 -0.372286 175203 
34 304.694 291.99 -87.0665 0 7.60639 25.5091 1.13078 184942 
38 287.061 271.637 -92.8325 0 8.94843 26.1839 2.08533 169971 
42 277.853 259.169 -100.17 0 11.8423 30.6396 -0.34316 171228 
46 258.72 237.449 -102.733 0 13.1052 30.2903 0.546325 139507 
50 202.733 178.116 -96.8271 0 21.047 38.7165 -0.174341 134874 
54 49.6072 14.5977 -47.4108 0 20.0378 6.1696 -0.164543 36542.7 
58 8.08014 -3.69895 -7.18376 0 3.54831 -1.82704 -0.126068 5399.36 
62 4.53572 -2.43662 -3.82566 0 2.47411 -1.5758 -0.211569 4545.89 
66 4.77905 -2.56729 -4.03093 0 2.18242 -1.38998 0.190234 4075.22 
70 3.44019 -1.8481 -2.90163 0 1.92649 -1.22701 0.184375 3372.15 
74 4.84864 -2.60473 -4.08958 0 2.19603 -1.39869 -0.259927 3508.96 
78 4.19381 -2.25301 -3.53723 0 1.37709 -0.877129 -0.155053 2929.17 
82 4.73904 -2.54592 -3.99709 0 1.23305 -0.78538 0.195444 2239.76 
86 3.15684 -1.69589 -2.66263 0 0.649649 -0.413777 0.28865 1483.87 
90 3.68923 -1.98189 -3.11168 0 0.887086 -0.565001 0.0430228 1875.57 
94 4.22112 -2.26761 -3.56031 0 0.802805 -0.511317 0.0287892 1942.6 
98 3.50592 -1.8834 -2.95708 0 1.29632 -0.825646 0.182248 2332.26 
102 3.86978 -2.07887 -3.26398 0 0.633485 -0.403474 -0.175212 1589.61 
106 3.90291 -2.09666 -3.29191 0 0.570413 -0.363304 0.301874 1464.23 
110 4.29159 -2.30546 -3.61975 0 0.80633 -0.51356 0.0500307 2144.85 
114 4.20058 -2.25659 -3.54297 0 0.444753 -0.283273 0.0856204 1476.07 
118 3.43279 -3.43279 0 0 0 -0.14879 -0.126744 1298.06 
122 4.45977 -4.45977 0 0 0 0.0108493 -0.0108298 1188.54 
126 5.88596 -5.88596 0 0 0 -0.00460722 -0.0543822 1449.99 
130 6.554 -6.554 0 0 0 0.100408 0.121124 1762.85 
134 7.06962 -7.06962 0 0 0 -0.148762 0.257202 2421.1 
3 345.109 345.062 5.66744 0 0.00581953 -0.354322 0.547162 185492 
7 344.548 344.457 -7.95537 0 0.0949069 4.10934 0.425774 166166 
11 338.793 338.129 -21.1964 0 0.502891 8.02222 -0.38081 178726 
15 338.643 336.879 -34.5209 0 1.42864 13.9417 -1.23802 207873 
19 331.744 328.423 -46.8278 0 2.21536 15.5372 0.354301 188584 
23 328.855 323.475 -59.2416 0 3.66984 20.0383 -0.0225586 188423 
27 322.047 314.238 -70.4887 0 5.28078 23.5416 1.06939 196341 
31 312.31 301.8 -80.3395 0 5.42426 20.3765 0.829882 163407 
35 307.032 293.348 -90.6387 0 7.1265 23.0646 -1.06962 155875 
39 293.747 277.01 -97.7382 0 9.44028 26.7557 1.4283 151039 
43 276.501 256.91 -102.226 0 11.4552 28.7888 -1.28817 145492 
47 246.815 225.543 -100.239 0 15.2871 34.3969 1.84231 151594 
51 151.496 116.7 -96.603 0 25.9887 31.3953 1.04342 105816 
55 34.8144 3.65406 -34.6221 0 13.7434 1.4505 -0.128024 22512.6 
59 4.39251 -2.35969 -3.70486 0 1.90739 -1.21485 -0.041336 2889.99 
63 4.26208 -2.28959 -3.59487 0 1.6457 -1.04815 0.48861 2760.07 
67 5.19139 -2.78886 -4.37868 0 2.57484 -1.63996 -0.142447 4719.07 
71 4.48501 -2.40943 -3.78286 0 2.53205 -1.61274 0.187414 4673.16 
75 4.25694 -2.28688 -3.59051 0 1.97389 -1.25722 -0.069259 3614.51 
79 3.36594 -1.80821 -2.839 0 1.11141 -0.707878 0.167492 2286.86 
83 3.73792 -2.008 -3.15277 0 1.17592 -0.748944 0.0476421 2124.34 
87 3.97151 -2.13353 -3.34977 0 1.28222 -0.816671 -0.243936 2223.67 
91 4.28693 -2.30298 -3.6158 0 1.04133 -0.663244 -0.096853 1836.63 
95 4.30331 -2.31176 -3.62963 0 1.14271 -0.727808 -0.0853315 2640.99 
99 4.55967 -2.44948 -3.84586 0 1.13104 -0.720377 -0.151999 2482.92 
103 4.01972 -2.15941 -3.39044 0 0.762505 -0.48565 -0.0511935 1428.23 
107 4.12873 -2.21803 -3.48235 0 0.537416 -0.342299 -0.0113036 1597.35 
111 4.85226 -2.60673 -4.0926 0 0.735471 -0.468449 0.0597204 1894.99 
115 5.08319 -2.73073 -4.28741 0 0.503414 -0.320633 0.136179 1849.27 
119 4.22648 -4.22648 0 0 0 0.304233 -0.0997009 1177.96 
123 4.94378 -4.94378 0 0 0 0.0730562 0.127096 1325.92 
127 5.83904 -5.83904 0 0 0 -0.0239679 -0.00603678 1866.56 
131 6.01521 -6.01521 0 0 -1.89447e-15 -0.0825638 0.0781353 1863.66 
4 342.568 342.56 2.24118 0 -0.0224082 3.42506 -2.86091 210861 
8 343.395 343.209 -11.3159 0 0.17044 5.16939 0.010547 164656 
12 337.23 336.345 -24.4182 0 0.735064 10.125 -1.4237 184025 
16 334.525 332.429 -37.3874 0 1.37702 12.2437 -1.09933 185513 
20 328.949 325.182 -49.6424 0 2.81542 18.4424 -0.2061 209122 
24 325.638 319.715 -61.8224 0 3.87908 20.0607 1.32463 196379 
28 316.092 307.732 -72.219 0 4.26482 18.1727 1.89756 148021 
32 305.185 294.125 -81.4134 0 7.19437 25.9914 0.158689 189867 
36 297.655 283.507 -90.675 0 8.77459 27.4349 1.47974 175648 
40 287.68 270.331 -98.3907 0 10.8942 29.932 0.290637 178096 
44 270.417 250.256 -102.458 0 12.6055 30.7894 0.681851 157178 
48 240.322 218.637 -99.7633 0 16.7245 36.6527 -0.256127 145238 
52 108.699 68.8366 -84.1243 0 25.3783 20.7663 -0.406138 75460.8 
56 19.2659 -1.70124 -19.1906 0 8.23558 -0.730081 0.362979 11246.7 
60 4.0606 -2.1814 -3.4249 0 2.25621 -1.43703 0.412252 3340.08 
64 4.59586 -2.46901 -3.87632 0 1.9604 -1.24867 -0.531573 4552.86 
68 4.47967 -2.40658 -3.77834 0 3.23835 -2.06263 0.0532383 4495.49 
72 3.82635 -2.05554 -3.22733 0 1.87951 -1.19709 -0.265973 3671.53 
76 3.87419 -2.08125 -3.26768 0 1.90872 -1.2157 -0.00887988 3526.47 
80 4.02843 -2.16407 -3.3978 0 1.22325 -0.779089 -0.620485 2167.7 
84 4.12968 -2.2185 -3.48318 0 1.09815 -0.699433 -0.099052 2164.75 
88 3.55858 -1.9117 -3.00148 0 0.510801 -0.325339 0.270039 1539.26 
92 3.63379 -1.95206 -3.06494 0 0.609208 -0.388005 0.396137 1554.47 
96 4.3726 -2.34898 -3.68808 0 0.891642 -0.567897 -0.0794024 2013.76 
100 4.4225 -2.37585 -3.73012 0 0.947968 -0.603794 -0.0690596 2019.64 
104 4.1751 -2.24294 -3.52145 0 0.69586 -0.443219 0.0667511 1522.33 
108 4.72465 -2.53811 -3.98501 0 0.865043 -0.550958 -0.0763288 1590.09 
112 4.1505 -2.22967 -3.50075 0 0.621623 -0.39592 -0.0678025 1433.91 
116 4.96658 -2.66809 -4.18905 0 0.830978 -0.529266 0.0893584 1692.01 
120 4.19268 -4.19268 0 0 0 0.110652 0.190752 1176.15 
124 6.06434 -6.06434 0 0 0 0.289283 0.339675 931.805 
128 6.19832 -6.19832 0 0 0 0.103279 0.151649 1631.59 
132 7.10181 -7.10181 0 0 0 0.190037 -0.0258235 1952.96 
