ITEM: TIMESTEP
16000
ITEM: NUMBER OF SURFS
134
ITEM: BOX BOUNDS oo ao pp
-2.5 5
0 5
-0.0005 0.0005
ITEM: SURFS id f_avg_pressure[1] f_avg_pressure[2] f_avg_pressure[3] f_avg_pressure[4] f_avg_shear[1] f_avg_shear[2] f_avg_shear[3] f_avg_heat_flux[*] 
1 338.723 338.502 12.2529 0 0.0148126 -0.409215 0.171996 190903 
5 327.123 327.121 -1.08653 0 0.0173318 5.21808 -1.63714 242896 
9 323.226 322.929 -13.8467 0 0.00380913 0.0888357 1.87254 183350 
13 314.658 313.591 -25.8875 0 0.693635 8.40243 -0.230095 212271 
17 330.123 327.675 -40.1317 0 1.52235 12.43 -1.17693 183790 
21 323.661 319.456 -52.0052 0 3.20047 19.6598 2.94778 192367 
25 313.012 306.716 -62.4609 0 3.22166 15.8201 0.445082 177870 
29 294.001 285.545 -70.0027 0 5.30166 21.6258 1.47603 197959 
33 300.739 289.033 -83.0891 0 7.32253 25.4721 -3.20308 172009 
37 289.23 274.599 -90.8266 0 9.11845 27.5681 -0.519457 182517 
41 281.834 263.872 -99.0039 0 11.9428 31.8308 -2.59781 178670 
45 250.317 230.708 -97.1206 0 14.2335 33.8113 4.08643 180106 
49 228.424 206.864 -96.8748 0 18.4424 39.3815 1.48316 156831 
53 69.122 32.6667 -60.9159 0 24.1559 12.9538 -0.996759 59745.9 
57 10.2775 -2.85936 -9.8717 0 4.97984 -1.44242 -0.420201 6876.47 
61 4.32312 -2.32242 -3.64634 0 3.02131 -1.92432 -0.616881 4855.48 
65 4.50184 -2.41842 -3.79707 0 2.03495 -1.2961 -0.863113 3904.56 
69 1.10634 -0.594325 -0.933148 0 0.955774 -0.608735 0.33562 2545.37 
73 3.91042 -2.10071 -3.29824 0 1.12725 -0.717969 0.357696 3627.06 
77 2.38088 -1.279 -2.00816 0 0.478198 -0.304566 0.277471 851.592 
81 2.20221 -1.18304 -1.85745 0 0.700819 -0.446364 -0.0397902 1720.39 
85 3.3037 -1.77478 -2.7865 0 0.902978 -0.575125 0.38254 1628.39 
89 2.58475 -1.38856 -2.1801 0 0.610128 -0.388605 0.874424 1363.74 
93 2.60286 -1.39832 -2.19536 0 0.751 -0.478342 0.0455682 931.466 
97 2.0984 -1.1273 -1.76988 0 0.426962 -0.271947 0.0658964 1475.34 
101 2.78791 -1.49768 -2.35147 0 0.949473 -0.604732 0.168043 1904.62 
105 2.96989 -1.59544 -2.50496 0 0.287543 -0.18314 -0.0878964 1862.12 
109 2.83083 -1.52074 -2.38767 0 0.595876 -0.37952 -0.592356 1816.07 
113 4.38468 -2.35548 -3.69826 0 0.421843 -0.268678 -0.0741855 2573.6 
117 2.15081 -2.15081 0 0 0 -0.0302207 0.418705 898.098 
121 3.78871 -3.78871 0 0 0 0.031648 -0.046366 1478.99 
125 4.47883 -4.47883 0 0 0 -0.223109 -0.296563 1570.49 
129 5.61558 -5.61558 0 0 0 0.298038 -0.0842143 1601.35 
133 5.74999 -5.74999 0 0 0 0.0232263 -0.0271079 1983.1 
2 331.167 331.052 8.70703 0 -0.0767569 2.91839 0.862982 197387 
6 326.349 326.321 -4.30891 0 0.0390493 2.95727 1.48442 211053 
10 326.253 325.8 -17.1931 0 0.304495 5.77001 3.02254 196018 
14 322.593 321.222 -29.7093 0 1.32469 14.3227 0.0742544 231482 
18 327.976 325.133 -43.0853 0 1.93357 14.5913 -2.19262 211600 
22 318.269 313.612 -54.2463 0 3.29576 19.0537 -3.43186 195355 
26 308.677 301.846 -64.5792 0 4.51797 21.1172 2.21906 205566 
30 302.601 293.173 -74.9474 0 5.94485 23.2546 -2.73812 204859 
34 290.502 278.39 -83.0112 0 8.52789 28.5995 -2.99911 216564 
38 281.059 265.956 -90.8912 0 9.08159 26.5736 3.26974 201207 
42 270.593 252.397 -97.5526 0 13.7891 35.6765 -3.2621 207000 
46 251.138 230.49 -99.7223 0 13.4823 31.1618 0.281753 162793 
50 203.379 178.683 -97.1353 0 23.109 42.5097 -0.83108 162660 
54 44.2165 13.0114 -42.2588 0 19.4614 5.99213 -0.113162 40118 
58 7.46082 -3.41543 -6.63315 0 4.07041 -2.09587 0.577616 6923.37 
62 3.7819 -2.03166 -3.18984 0 2.58229 -1.6447 -0.551899 4642.95 
66 4.28247 -2.30053 -3.61208 0 1.74853 -1.11363 -0.870829 3430.96 
70 1.84885 -0.993216 -1.55941 0 0.838753 -0.534217 0.0159362 900.979 
74 4.4842 -2.40895 -3.78219 0 2.65323 -1.68989 -0.745854 4602.42 
78 3.21924 -1.72945 -2.71524 0 1.15829 -0.737762 0.259432 3148.33 
82 2.45705 -1.31998 -2.07237 0 1.06272 -0.676894 -0.69667 1046.29 
86 2.49651 -1.34115 -2.10567 0 0.866718 -0.552034 0.454064 1460.39 
90 2.61324 -1.40386 -2.20414 0 0.533019 -0.339489 -0.679788 1471.99 
94 2.81171 -1.51046 -2.37154 0 0.558872 -0.355953 0.285214 2019.35 
98 2.30555 -1.23855 -1.94462 0 -0.00327548 0.0020862 0.56723 1194.19 
102 2.94616 -1.58269 -2.48494 0 0.715848 -0.455933 0.134756 1669.36 
106 2.45698 -1.3199 -2.07234 0 0.283822 -0.18077 0.203479 1595.32 
110 3.98666 -2.14165 -3.36256 0 0.472141 -0.300712 0.362305 2488.46 
114 4.018 -2.15851 -3.38898 0 0.35226 -0.224362 0.21834 1964.93 
118 2.93952 -2.93952 0 0 0 -0.0186508 -0.253648 900.376 
122 2.71693 -2.71693 0 0 0 0.517882 -0.211157 772.902 
126 5.53355 -5.53355 0 0 0 -0.192715 -0.073682 1877.86 
130 5.08487 -5.08487 0 0 0 -0.435169 0.218274 2053.58 
134 5.67771 -5.67771 0 0 0 0.164294 0.290342 3059.68 
3 331.096 331.051 5.43731 0 0.0174557 -1.06279 -1.16686 215911 
7 325.367 325.281 -7.51249 0 0.149157 6.4583 0.149394 185452 
11 324.857 324.221 -20.3245 0 0.528017 8.42305 -1.88126 202783 
15 324.7 323.009 -33.0996 0 1.53919 15.0205 -3.45797 244308 
19 319.284 316.088 -45.069 0 2.73394 19.1743 2.33715 223004 
23 317.142 311.953 -57.1314 0 4.26453 23.2855 -1.90328 225905 
27 311.579 304.024 -68.1976 0 5.97484 26.6357 3.52016 231962 
31 299.631 289.548 -77.078 0 5.89668 22.1512 -0.011284 191381 
35 296.049 282.855 -87.3964 0 8.95836 28.9934 -2.38551 185571 
39 282.29 266.206 -93.9261 0 10.0576 28.5052 -1.38336 180016 
43 271.877 252.614 -100.516 0 12.0121 30.1883 -2.18426 174364 
47 236.016 215.675 -95.8531 0 17.3532 39.0458 3.21221 174078 
51 147.033 113.262 -93.7569 0 26.9103 32.5087 -0.497187 121102 
55 33.1061 3.47476 -32.9233 0 14.2704 1.50612 -0.662509 27106.9 
59 3.82306 -2.05378 -3.22456 0 2.10687 -1.3419 -0.229328 3276.52 
63 2.19644 -1.17993 -1.8526 0 0.553672 -0.352636 -0.044026 1208.08 
67 4.57666 -2.45862 -3.86019 0 2.38809 -1.52102 0.127439 4588.74 
71 3.0493 -1.63814 -2.57191 0 1.74477 -1.1113 0.688659 3266.95 
75 3.9294 -2.11092 -3.31424 0 2.80274 -1.78513 0.0729845 4323.03 
79 1.50339 -0.807634 -1.26803 0 0.451937 -0.287847 0.0549966 1242.55 
83 2.76087 -1.48314 -2.32867 0 1.29624 -0.825579 -0.156129 1996.61 
87 2.24856 -1.20794 -1.89655 0 0.99994 -0.63688 -0.168017 1753.63 
91 3.42433 -1.83958 -2.88825 0 1.09877 -0.699831 0.259722 2501.6 
95 3.01074 -1.61739 -2.53941 0 0.796189 -0.507103 -0.010803 2968.77 
99 3.38322 -1.81748 -2.85358 0 0.811035 -0.516559 -0.360095 2330.75 
103 3.35233 -1.80089 -2.82753 0 0.540936 -0.34453 -0.0187352 1851.61 
107 3.17101 -1.70353 -2.67457 0 0.217341 -0.138432 -0.463118 1715.64 
111 4.28323 -2.30104 -3.61266 0 0.921726 -0.587082 0.269845 2287.74 
115 4.24051 -2.27804 -3.57666 0 0.481073 -0.306404 0.112084 2376.37 
119 3.54705 -3.54705 0 0 0 0.536327 0.0946275 1342.16 
123 3.51114 -3.51114 0 0 0 -0.018553 -0.380995 1624.31 
127 4.68553 -4.68553 0 0 0 -0.228202 -0.189288 2695.89 
131 4.60379 -4.60379 0 0 -1.4295e-15 0.16872 0.262997 2011.63 
4 327.024 327.017 2.13949 0 -0.0531707 8.12706 -3.01859 237314 
8 322.243 322.068 -10.6189 0 0.183261 5.55827 -0.496386 187685 
12 318.514 317.678 -23.063 0 0.77247 10.6403 -5.66419 208332 
16 325.82 323.779 -36.4145 0 1.52069 13.5212 -1.34069 223734 
20 314.032 310.436 -47.3913 0 2.92286 19.1462 -2.00503 243167 
24 315.635 309.895 -59.9235 0 4.56655 23.616 0.813778 230441 
28 302.1 294.109 -69.0221 0 4.69952 20.0251 1.2134 176015 
32 292.601 281.997 -78.0564 0 8.51172 30.7506 -0.302528 225581 
36 288.44 274.731 -87.868 0 10.0143 31.3111 2.03128 207796 
40 282.571 265.53 -96.6435 0 12.2431 33.6382 3.11031 213738 
44 261.742 242.227 -99.1704 0 14.2131 34.716 5.59811 183929 
48 238.227 216.73 -98.8935 0 18.8613 41.3356 -0.223073 169291 
52 103.646 65.6369 -80.214 0 25.0881 20.5289 0.690333 88224.4 
56 17.0987 -1.50987 -17.0319 0 8.14045 -0.721648 0.032856 13677.2 
60 3.59696 -1.93233 -3.03385 0 1.50676 -0.959692 0.894746 4204.92 
64 2.66165 -1.4299 -2.24494 0 0.533687 -0.33993 -0.492908 1260.12 
68 3.6485 -1.96005 -3.07729 0 2.16222 -1.3772 -1.27509 4826.14 
72 4.11047 -2.20817 -3.46698 0 1.71992 -1.09544 0.0866558 3934.05 
76 2.13539 -1.14715 -1.80109 0 1.41006 -0.898096 0.0610872 2899.94 
80 3.40118 -1.82711 -2.86875 0 1.10904 -0.706353 -0.305129 3756.8 
84 2.29727 -1.23411 -1.93763 0 0.50725 -0.323077 0.140138 1903.05 
88 2.52462 -1.35625 -2.12939 0 0.385346 -0.245435 0.247647 1453.97 
92 3.09746 -1.66395 -2.61257 0 0.816206 -0.519842 0.282224 2195.75 
96 2.14898 -1.15444 -1.81256 0 0.566376 -0.360731 -0.108156 1646.54 
100 2.93765 -1.57816 -2.47774 0 0.697397 -0.444197 -0.0258245 1923.3 
104 2.92738 -1.57265 -2.46908 0 0.315375 -0.200874 -0.0959808 1290.01 
108 3.86069 -2.07398 -3.2563 0 1.12002 -0.713356 -0.214445 2006.01 
112 2.98545 -1.6038 -2.51808 0 0.3464 -0.220627 -0.384872 1505.17 
116 3.98336 -2.1399 -3.35976 0 0.410112 -0.261208 0.268432 1920.18 
120 3.64337 -3.64337 0 0 0 0.33729 0.029661 1451.56 
124 4.85339 -4.85339 0 0 0 0.048377 0.489576 1047.66 
128 5.22362 -5.22362 0 0 0 -0.184503 -0.435524 2402.93 
132 6.27937 -6.27937 0 0 0 0.158826 -0.177905 2868.31 
