ITEM: TIMESTEP
17000
ITEM: NUMBER OF SURFS
134
ITEM: BOX BOUNDS oo ao pp
-2.5 5
0 5
-0.0005 0.0005
ITEM: SURFS id f_avg_pressure[1] f_avg_pressure[2] f_avg_pressure[3] f_avg_pressure[4] f_avg_shear[1] f_avg_shear[2] f_avg_shear[3] f_avg_heat_flux[*] 
1 342.208 341.984 12.379 0 0.0335496 -0.926847 0.86236 184854 
5 337.461 337.459 -1.12087 0 0.0122853 3.69872 -0.94712 238127 
9 328.222 327.921 -14.0607 0 0.0925966 2.15952 1.13495 176945 
13 323.584 322.487 -26.6218 0 0.680323 8.24118 0.376524 207975 
17 334.781 332.298 -40.698 0 1.43134 11.6869 -2.15748 175589 
21 329.776 325.491 -52.9876 0 2.70001 16.5855 4.25909 186200 
25 319.209 312.789 -63.6976 0 3.32387 16.3219 -0.119371 170719 
29 302.408 293.71 -72.0043 0 5.3015 21.6252 1.02779 194158 
33 306.814 294.871 -84.7673 0 7.46327 25.9617 -3.70653 167876 
37 293.896 279.029 -92.2917 0 8.95315 27.0684 -1.34484 176681 
41 285.913 267.692 -100.437 0 11.271 30.0403 -2.238 170739 
45 254.375 234.448 -98.6951 0 14.0036 33.2652 2.96575 171342 
49 230.4 208.653 -97.7127 0 18.3479 39.1797 2.02696 150440 
53 70.7438 33.4332 -62.3451 0 24.4378 13.105 -1.08211 57845.6 
57 10.3156 -2.86995 -9.90828 0 5.01405 -1.45233 -0.448556 6668.34 
61 4.54331 -2.4407 -3.83205 0 3.1722 -2.02043 -0.356688 5214.13 
65 3.61194 -1.94037 -3.04649 0 1.63182 -1.03934 -0.625312 3311.4 
69 1.24902 -0.67097 -1.05349 0 0.793671 -0.505492 0.227844 2103.71 
73 5.38821 -2.89459 -4.54469 0 2.00408 -1.27643 0.649053 4738.14 
77 3.36742 -1.80898 -2.84027 0 0.511188 -0.325577 0.893867 1052.51 
81 2.31585 -1.24409 -1.9533 0 0.537605 -0.34241 0.17042 1599.08 
85 3.65011 -1.96088 -3.07868 0 0.985865 -0.627917 0.325624 1627.69 
89 2.51198 -1.34947 -2.11872 0 0.638045 -0.406386 0.60105 1099.77 
93 3.06888 -1.64867 -2.58842 0 0.892297 -0.56834 -0.0863545 1484.23 
97 2.57308 -1.38231 -2.17025 0 0.584055 -0.372006 0.0396432 1462.07 
101 2.93168 -1.57491 -2.47273 0 0.968123 -0.61661 0.148781 2231.65 
105 3.23725 -1.73906 -2.73046 0 0.355632 -0.226506 -0.112077 1753.54 
109 2.9019 -1.55891 -2.44761 0 0.561153 -0.357405 -0.267526 1632.22 
113 4.29486 -2.30723 -3.6225 0 0.456647 -0.290846 -0.137824 2357.65 
117 1.88222 -1.88222 0 0 0 -0.0696381 0.42642 810.417 
121 4.03451 -4.03451 0 0 0 0.25743 0.117021 1430.02 
125 4.57957 -4.57957 0 0 0 -0.223782 -0.298574 1212.28 
129 4.99131 -4.99131 0 0 0 0.264648 0.0313012 1267.49 
133 5.40387 -5.40387 0 0 0 -0.0101473 0.257581 1664.46 
2 338.996 338.879 8.91288 0 -0.0423887 1.61167 1.73041 188171 
6 333.803 333.773 -4.40732 0 0.0391654 2.96606 2.61514 205534 
10 336.048 335.581 -17.7093 0 0.300577 5.69575 2.40714 191856 
14 326.666 325.278 -30.0845 0 1.26483 13.6756 -1.57435 219223 
18 331.046 328.177 -43.4887 0 1.94075 14.6454 -1.44537 203357 
22 324.857 320.103 -55.369 0 3.10282 17.9382 -2.3205 187136 
26 315.611 308.627 -66.0299 0 4.48915 20.9825 1.17405 196311 
30 308.715 299.096 -76.4616 0 5.84273 22.8551 -2.37238 197611 
34 297.259 284.865 -84.9419 0 8.17749 27.4243 -1.89057 208978 
38 283.154 267.939 -91.5687 0 8.60253 25.1718 3.16303 192803 
42 276.131 257.562 -99.5491 0 13.9129 35.9967 -3.47387 198965 
46 254.925 233.966 -101.226 0 13.5906 31.412 0.797916 159624 
50 203.348 178.656 -97.1204 0 22.3089 41.0379 -1.02657 155828 
54 45.3927 13.3575 -43.3829 0 19.5054 6.00566 -0.228214 39138.5 
58 7.83157 -3.58516 -6.96277 0 3.96912 -2.04371 0.479242 6636.74 
62 3.92151 -2.10666 -3.3076 0 2.51328 -1.60075 -0.201139 4174.1 
66 4.20385 -2.25829 -3.54577 0 1.45331 -0.92561 -0.24999 3641.78 
70 1.80713 -0.970804 -1.52422 0 1.05881 -0.674377 0.1368 1589.71 
74 4.04484 -2.17292 -3.41162 0 2.28272 -1.45391 -0.524482 3773.18 
78 2.85391 -1.53318 -2.4071 0 1.12564 -0.716968 -0.00395405 2945.83 
82 2.71822 -1.46029 -2.29265 0 1.23495 -0.786593 -0.663885 1453.08 
86 2.5429 -1.36608 -2.1448 0 0.73306 -0.466904 0.281039 1284.25 
90 2.55744 -1.37388 -2.15707 0 0.775022 -0.493625 -0.183965 1585.7 
94 2.76714 -1.48652 -2.33395 0 0.648773 -0.413212 0.0857848 1772.58 
98 2.41253 -1.29602 -2.03485 0 0.642922 -0.409486 0.784394 2004.35 
102 3.12628 -1.67945 -2.63686 0 0.731753 -0.466063 -0.0419535 1768.96 
106 2.77858 -1.49267 -2.3436 0 0.606551 -0.38632 0.0519298 1809.58 
110 4.1259 -2.21645 -3.48 0 0.629504 -0.400938 0.252552 2429.85 
114 4.16296 -2.23638 -3.51124 0 0.497371 -0.316786 0.0483793 1844.8 
118 2.54069 -2.54069 0 0 0 0.0554936 -0.142825 769.555 
122 3.62617 -3.62617 0 0 0 0.412617 -0.145162 987.491 
126 5.32859 -5.32859 0 0 0 -0.184736 0.0442055 1883.74 
130 4.76514 -4.76514 0 0 0 -0.391467 0.062795 1974.78 
134 5.92772 -5.92772 0 0 0 -0.0291611 0.378494 2830.69 
3 336.41 336.365 5.52459 0 0.0309821 -1.88635 -1.56961 207093 
7 332.347 332.258 -7.67364 0 0.15155 6.5619 1.22294 184081 
11 330.356 329.709 -20.6685 0 0.485333 7.74215 -1.46256 196256 
15 330.99 329.266 -33.7408 0 1.71629 16.7488 -2.03601 236345 
19 324.725 321.474 -45.837 0 2.50169 17.5454 0.564431 213308 
23 320.723 315.476 -57.7767 0 4.19712 22.9174 -1.6066 213207 
27 316.492 308.818 -69.273 0 5.73126 25.5498 3.22971 222400 
31 305.371 295.094 -78.5544 0 5.50387 20.6756 1.012 184601 
35 300.577 287.181 -88.7331 0 8.72012 28.2223 -2.31453 178959 
39 289.961 273.44 -96.4785 0 9.88528 28.0169 0.226955 174547 
43 272.604 253.289 -100.785 0 11.7482 29.5251 -1.16991 164149 
47 242.357 221.47 -98.4284 0 16.681 37.5332 2.97218 167254 
51 149.18 114.916 -95.1259 0 26.9102 32.5085 0.15349 117192 
55 33.5513 3.52148 -33.3659 0 13.8067 1.45718 -0.483703 25806.1 
59 4.48949 -2.41179 -3.78666 0 2.38636 -1.51991 -0.301665 3562.12 
63 2.53432 -1.36144 -2.13759 0 0.92592 -0.589722 -0.315611 583.777 
67 4.54321 -2.44065 -3.83197 0 2.64805 -1.68659 0.648619 4188.08 
71 3.3628 -1.80656 -2.83634 0 2.27725 -1.45045 0.713934 3816.59 
75 3.7206 -1.99875 -3.13813 0 2.19032 -1.39507 -0.169796 3941.42 
79 1.60088 -0.860008 -1.35027 0 0.4159 -0.264894 0.21514 1255.79 
83 2.73329 -1.46832 -2.30541 0 1.12567 -0.716943 -0.134083 1841.81 
87 2.56016 -1.37534 -2.15937 0 1.0764 -0.685581 -0.363573 1579.6 
91 3.33998 -1.79427 -2.8171 0 0.951839 -0.606246 0.23691 2054.61 
95 3.0934 -1.66179 -2.60913 0 0.890998 -0.567489 -0.118206 2808.53 
99 3.35479 -1.80221 -2.8296 0 0.833792 -0.531053 -0.404725 2253.37 
103 3.21085 -1.72489 -2.7082 0 0.551748 -0.351416 -0.0220882 1615.24 
107 3.49889 -1.87967 -2.95111 0 0.380975 -0.242656 -0.349154 1994.44 
111 4.17279 -2.24171 -3.51951 0 0.662551 -0.422004 0.297019 1862.49 
115 4.55628 -2.44767 -3.843 0 0.549157 -0.349768 0.0387237 2461.36 
119 3.64715 -3.64715 0 0 0 0.527799 -0.167914 1337.05 
123 3.73931 -3.73931 0 0 0 0.10118 -0.428951 1532.83 
127 4.76676 -4.76676 0 0 0 -0.318613 -0.14562 2255.63 
131 4.54855 -4.54855 0 0 -1.42594e-15 0.154714 0.189529 1854.15 
4 332.746 332.739 2.17692 0 -0.0485384 7.41901 -2.7457 231065 
8 327.835 327.657 -10.8031 0 0.143797 4.36132 0.811923 179365 
12 326.312 325.455 -23.6277 0 0.810858 11.169 -3.94496 201836 
16 328.923 326.862 -36.7613 0 1.3034 11.5891 -2.1063 212879 
20 318.748 315.097 -48.1029 0 3.02948 19.8446 -1.50945 235040 
24 319.937 314.119 -60.7402 0 4.6308 23.9482 0.848187 220772 
28 308.624 300.461 -70.5128 0 4.5468 19.3743 -0.208979 169646 
32 295.985 285.259 -78.9591 0 7.89833 28.5346 -0.741042 214591 
36 291.976 278.099 -88.9451 0 9.74014 30.4538 3.02903 197629 
40 285.586 268.363 -97.6746 0 11.7645 32.3232 1.67884 203893 
44 264.87 245.122 -100.356 0 13.274 32.4222 3.43713 175854 
48 238.531 217.007 -99.0198 0 18.1993 39.8847 0.0673487 161422 
52 106.431 67.4004 -82.3693 0 25.3192 20.718 0.133584 84945.6 
56 17.3394 -1.53112 -17.2716 0 8.25935 -0.732189 -0.0272956 12542.2 
60 3.48342 -1.87133 -2.93808 0 1.33468 -0.850093 0.73634 3077.31 
64 2.48881 -1.33705 -2.09916 0 0.299264 -0.190615 -1.01689 1473.61 
68 2.90396 -1.56007 -2.44932 0 1.91989 -1.22285 -0.74679 3459.85 
72 4.98333 -2.67708 -4.20319 0 2.21267 -1.40928 -0.395136 4326.83 
76 2.52346 -1.35563 -2.12841 0 1.6095 -1.02512 -0.0565087 2915.43 
80 3.38028 -1.81588 -2.85112 0 1.04868 -0.667908 -0.394025 3159.27 
84 2.58082 -1.38644 -2.17679 0 0.642854 -0.409446 0.0694645 1882.65 
88 2.86874 -1.54111 -2.41963 0 0.455315 -0.29 0.281632 1410.31 
92 3.04514 -1.63584 -2.56844 0 0.70938 -0.451805 0.320058 1841.75 
96 2.74677 -1.47558 -2.31677 0 0.606173 -0.386078 -0.144484 1715.36 
100 3.46473 -1.86132 -2.9223 0 0.720107 -0.458661 -0.0423154 1960.34 
104 3.19892 -1.71852 -2.6981 0 0.480888 -0.306295 -0.133896 1365.98 
108 4.05858 -2.18029 -3.42322 0 1.08395 -0.690382 -0.0421463 1887.77 
112 3.27476 -1.75922 -2.7621 0 0.41219 -0.262529 -0.359963 1593.02 
116 3.95271 -2.12343 -3.33391 0 0.641917 -0.408849 0.14128 1783.64 
120 3.84799 -3.84799 0 0 0 0.234184 0.0685366 1579.66 
124 5.19411 -5.19411 0 0 0 0.00781743 0.639838 1035.2 
128 5.10179 -5.10179 0 0 0 0.0092764 -0.130438 2117.56 
132 6.05447 -6.05447 0 0 0 0.128412 -0.153178 2106.49 
