ITEM: TIMESTEP
14000
ITEM: NUMBER OF SURFS
134
ITEM: BOX BOUNDS oo ao pp
-2.5 5
0 5
-0.0005 0.0005
ITEM: SURFS id f_avg_pressure[1] f_avg_pressure[2] f_avg_pressure[3] f_avg_pressure[4] f_avg_shear[1] f_avg_shear[2] f_avg_shear[3] f_avg_heat_flux[*] 
1 282.702 282.517 10.2264 0 -0.17621 4.868 1.83786 187231 
5 266.202 266.201 -0.884183 0 0.00295754 0.890426 0.489351 227072 
9 269.461 269.214 -11.5434 0 -0.0989131 -2.30683 -7.27084 169906 
13 255.879 255.011 -21.0516 0 0.321104 3.88973 -4.6364 209940 
17 279.688 277.613 -34.0005 0 1.71704 14.0196 0.807072 186732 
21 267.934 264.453 -43.0511 0 2.41283 14.8215 4.01498 190853 
25 254.214 249.102 -50.7281 0 2.9658 14.5637 1.73822 170115 
29 239.094 232.218 -56.9292 0 5.32711 21.7296 -2.93758 185306 
33 242.721 233.274 -67.0597 0 5.63936 19.6171 1.76767 164045 
37 234.533 222.669 -73.6502 0 8.77416 26.5272 -3.59527 177805 
41 231.286 216.546 -81.2474 0 11.3727 30.3115 -1.607 161744 
45 202.84 186.95 -78.7 0 12.5914 29.9105 4.56399 171230 
49 181.998 164.82 -77.1853 0 16.5564 35.3541 1.21281 148210 
53 57.5025 27.1754 -50.6758 0 23.2107 12.4469 0.0105142 62048.5 
57 6.03959 -1.68031 -5.80114 0 5.02069 -1.45425 0.442738 4301.41 
61 2.42596 -1.30325 -2.04617 0 2.80671 -1.78764 -0.0779706 3585.06 
65 3.03177 -1.62869 -2.55714 0 2.13215 -1.358 -0.224713 3396.16 
69 2.21986 -1.19251 -1.87236 0 1.23155 -0.784376 0.40818 3466.4 
73 2.85337 -1.53285 -2.40667 0 1.75525 -1.11795 0.122332 3109.22 
77 2.57852 -1.38518 -2.17486 0 0.942592 -0.60034 0.293307 374.566 
81 1.30124 -0.699038 -1.09753 0 0.127648 -0.0813011 -0.171496 227.412 
85 2.96038 -1.59034 -2.49693 0 1.33111 -0.847812 -0.103079 2134.59 
89 3.79838 -2.04054 -3.20373 0 1.80022 -1.1466 0.493741 1574.55 
93 2.53165 -1.36006 -2.13529 0 1.39311 -0.887328 0.492286 1753.61 
97 2.01579 -1.08292 -1.7002 0 0.747885 -0.476354 -0.213837 945.532 
101 3.06654 -1.64736 -2.58648 0 1.00504 -0.640124 0.405034 1238.93 
105 2.42368 -1.30201 -2.04426 0 0.307305 -0.195726 0.409126 2500.9 
109 1.70473 -0.91579 -1.43786 0 -0.25852 0.164655 -0.642765 825.637 
113 4.75957 -2.55688 -4.01446 0 0.586872 -0.373788 0.314707 3267.59 
117 1.49532 -1.49532 0 0 0 0.179864 0.0106448 187.702 
121 5.37467 -5.37467 0 0 0 0.597827 0.487398 2718.08 
125 6.9285 -6.9285 0 0 0 -0.159889 -0.233287 3308.26 
129 8.40144 -8.40144 0 0 0 0.990709 -0.106751 2665.75 
133 7.72226 -7.72226 0 0 0 -0.0353812 -0.284428 3400.8 
2 284.21 284.112 7.47244 0 -0.00686056 0.260847 0.741881 193441 
6 270.201 270.177 -3.56756 0 0.061672 4.67053 3.28621 205217 
10 265.244 264.875 -13.978 0 0.728588 13.8063 0.458415 192500 
14 278.965 277.78 -25.6914 0 0.929245 10.0471 1.85716 239111 
18 280.24 277.812 -36.8144 0 2.17482 16.4118 3.00385 220550 
22 266.661 262.759 -45.4501 0 2.81853 16.2947 -2.01724 196629 
26 262.02 256.221 -54.8179 0 4.8196 22.527 6.32179 202077 
30 245.159 237.52 -60.7202 0 3.58385 14.019 -2.93703 190619 
34 240.361 230.339 -68.6833 0 7.06616 23.6973 1.60249 204354 
38 227.548 215.321 -73.5865 0 8.10836 23.7258 0.635913 184028 
42 220.817 205.968 -79.6075 0 13.4283 34.7428 -1.85006 197661 
46 200.922 184.403 -79.7828 0 12.2862 28.3972 -0.335346 151556 
50 164.471 144.499 -78.5524 0 21.5848 39.7058 -3.92904 159825 
54 34.1765 10.057 -32.6633 0 16.8201 5.17887 -0.767591 33844.1 
58 4.84763 -2.21916 -4.30985 0 2.43211 -1.25231 -0.251453 4822.36 
62 3.82476 -2.05469 -3.226 0 3.19286 -2.03358 1.19267 6465.55 
66 0 0 0 0 0 0 0 0 
70 0 0 0 0 0 0 0 0 
74 3.5038 -1.88227 -2.95528 0 2.78588 -1.77438 -0.888462 5412.21 
78 1.37702 -0.739764 -1.16143 0 0.734087 -0.467571 -0.249842 2479.5 
82 2.54496 -1.36721 -2.14652 0 0.902006 -0.574525 -0.218743 1834.68 
86 1.15611 -0.621074 -0.975114 0 0.073521 -0.0468273 0.431745 711.851 
90 1.84214 -0.989611 -1.55375 0 0.384556 -0.244931 -0.780911 1048.07 
94 2.57262 -1.38203 -2.16988 0 0.315808 -0.201143 0.928483 2869.27 
98 0.46494 -0.249768 -0.392154 0 -0.013333 0.008492 0.305702 263.694 
102 4.24182 -2.27873 -3.57777 0 0.731636 -0.465988 0.0751424 2280.31 
106 1.82821 -0.982124 -1.54201 0 0.435909 -0.277636 0.413497 658.93 
110 4.0024 -2.15011 -3.37583 0 0.967041 -0.615919 0.0343401 2936.16 
114 3.24146 -1.74135 -2.734 0 0.441394 -0.281133 0.47924 1950.22 
118 4.10382 -4.10382 0 0 0 0.73883 -0.0823082 1786.94 
122 3.37618 -3.37618 0 0 0 1.10132 -0.053095 1699.57 
126 7.35959 -7.35959 0 0 0 -0.225565 -0.418626 3983.85 
130 8.60915 -8.60915 0 0 0 -0.115572 0.624546 3946.95 
134 9.37317 -9.37317 0 0 0 0.739218 0.165128 6077.94 
3 277.802 277.765 4.56212 0 -0.0702707 4.27843 -1.11566 213810 
7 268.242 268.17 -6.19351 0 -0.002326 -0.100713 0.261733 169344 
11 270.738 270.208 -16.9386 0 0.552618 8.81549 1.02663 193534 
15 276.859 275.417 -28.2227 0 1.43213 13.9757 -5.15319 243639 
19 264.073 261.429 -37.2756 0 2.73583 19.1875 -0.445011 216545 
23 266.17 261.815 -47.9491 0 3.88266 21.2004 5.78774 214828 
27 261.935 255.584 -57.3317 0 6.37562 28.4224 5.15279 226523 
31 245.982 237.704 -63.2772 0 5.34423 20.0759 -3.2629 183927 
35 242.498 231.69 -71.5876 0 8.47057 27.4147 0.883598 180923 
39 227.023 214.088 -75.5372 0 7.24323 20.5288 -3.47571 167698 
43 218.237 202.774 -80.6849 0 11.3576 28.5435 -2.4195 167620 
47 191.738 175.213 -77.8704 0 15.0166 33.7882 3.18461 161450 
51 124.103 95.5988 -79.1357 0 24.2817 29.3331 -2.77695 120331 
55 23.9761 2.51649 -23.8437 0 9.51973 1.00472 -0.92567 22358.4 
59 2.52206 -1.35487 -2.12723 0 0.879183 -0.559968 -0.222289 2397.43 
63 0 0 0 0 0 0 0 0 
67 3.83502 -2.0602 -3.23465 0 1.52897 -0.973829 -0.679004 2819.89 
71 1.65966 -0.891599 -1.39983 0 1.68456 -1.07295 0.214845 2184.37 
75 4.31702 -2.31916 -3.64118 0 2.80928 -1.7893 1.94395 5365.52 
79 0.36862 -0.198026 -0.310913 0 0.625016 -0.398084 0.305251 -41.5232 
83 2.23935 -1.20298 -1.8888 0 0.254055 -0.161808 -0.578815 1649.7 
87 1.95005 -1.04758 -1.64477 0 0.0811815 -0.0517059 -0.375116 1959.96 
91 3.41402 -1.83404 -2.87955 0 1.10734 -0.705288 0.566628 3595.12 
95 2.52255 -1.35513 -2.12764 0 0.567913 -0.361712 0.0869578 3309.69 
99 4.50754 -2.42148 -3.80189 0 1.53471 -0.977476 -1.11224 4118.95 
103 2.93635 -1.57742 -2.47667 0 1.08268 -0.689575 -0.254536 807.197 
107 1.98575 -1.06678 -1.67486 0 0.333943 -0.2127 -0.226585 1636.98 
111 3.7472 -2.01307 -3.16054 0 0.821413 -0.523189 -0.0460047 2323.32 
115 2.96791 -1.59439 -2.50328 0 0.230448 -0.146777 0.184306 1500.56 
119 4.65178 -4.65178 0 0 0 0.787445 0.3523 2046.66 
123 4.88289 -4.88289 0 0 0 0.112729 -0.568911 2397 
127 7.6797 -7.6797 0 0 0 -0.186755 -0.593708 6056.83 
131 8.1388 -8.1388 0 0 -2.59261e-15 0.48212 0.656079 4170.82 
4 275.812 275.806 1.80444 0 -0.0385998 5.89992 -0.931415 228022 
8 264.425 264.281 -8.71361 0 0.135666 4.11473 -3.02798 177740 
12 264.4 263.706 -19.1447 0 0.509944 7.02415 -1.02449 202318 
16 264.287 262.632 -29.5375 0 1.73115 15.3925 -4.15332 216980 
20 268.836 265.757 -40.5706 0 2.70252 17.7028 -7.8926 244267 
24 259.438 254.72 -49.2544 0 4.12992 21.3579 1.15035 222625 
28 238.015 231.72 -54.3805 0 4.34369 18.5089 0.678657 164343 
32 245.631 236.729 -65.5262 0 7.38726 26.6882 -3.24711 222593 
36 235.574 224.378 -71.7633 0 8.64477 27.029 -1.40284 198445 
40 232.179 218.178 -79.4088 0 9.57445 26.306 0.723926 206371 
44 210.057 194.396 -79.5878 0 13.1072 32.0147 7.4922 177439 
48 201.386 183.214 -83.6 0 15.6035 34.196 -1.59875 170259 
52 87.1173 55.1696 -67.4221 0 17.7925 14.5591 3.29728 91305.5 
56 12.2702 -1.0835 -12.2222 0 5.66629 -0.502314 0.256154 11725.9 
60 3.97142 -2.1335 -3.34969 0 1.80759 -1.1513 0.569779 5805.07 
64 4.59268 -2.4673 -3.87364 0 0.893754 -0.569274 -1.33734 3723.9 
68 1.0385 -0.557903 -0.875912 0 0.0992512 -0.063217 -0.734453 -237.74 
72 4.64274 -2.49411 -3.91592 0 2.73802 -1.74389 -1.52608 5359.74 
76 1.31875 -0.708446 -1.1123 0 1.6157 -1.02907 0.457327 3810.61 
80 2.65255 -1.42495 -2.23731 0 1.47634 -0.940286 -0.0272152 4655.17 
84 1.58596 -0.851991 -1.33767 0 0.435759 -0.277543 0.24859 1530.18 
88 0.911209 -0.48951 -0.768558 0 0.245682 -0.15648 -0.152045 640.846 
92 2.55322 -1.37158 -2.15353 0 1.24753 -0.794552 0.224295 3143.81 
96 2.0757 -1.11507 -1.75075 0 0.714822 -0.455279 0.172925 2198.23 
100 2.77065 -1.48845 -2.33689 0 0.884892 -0.563619 0.0714673 2440.04 
104 4.14008 -2.22413 -3.49192 0 0.545826 -0.347657 0.408502 2389.23 
108 3.49028 -1.875 -2.94388 0 0.96951 -0.617494 0.0055057 2646.09 
112 2.06193 -1.10768 -1.73914 0 0.406955 -0.259195 -0.223893 1056.86 
116 3.39276 -1.82262 -2.86162 0 0.144719 -0.0921743 0.616394 2154.12 
120 4.12727 -4.12727 0 0 0 1.13994 -0.0629167 1705.08 
124 6.59414 -6.59414 0 0 0 1.08093 1.26018 1566.5 
128 8.91172 -8.91172 0 0 0 -0.0645885 -0.460251 4461.78 
132 9.81425 -9.81425 0 0 0 0.0750974 -0.490207 5288.88 
