ITEM: TIMESTEP
19000
ITEM: NUMBER OF SURFS
134
ITEM: BOX BOUNDS oo ao pp
-2.5 5
0 5
-0.0005 0.0005
ITEM: SURFS id f_avg_pressure[1] f_avg_pressure[2] f_avg_pressure[3] f_avg_pressure[4] f_avg_shear[1] f_avg_shear[2] f_avg_shear[3] f_avg_heat_flux[*] 
1 341.162 340.939 12.3412 0 -0.00483765 0.133646 0.193722 176015 
5 341.883 341.881 -1.13555 0 0.0167342 5.03815 0.0157941 228144 
9 339.611 339.3 -14.5486 0 0.146243 3.41066 -0.122237 173625 
13 332.568 331.441 -27.361 0 0.569678 6.90087 1.92133 196798 
17 338.961 336.447 -41.2061 0 1.43993 11.757 -1.41381 163701 
21 335.615 331.255 -53.9259 0 2.61543 16.066 2.56382 177426 
25 318.673 312.264 -63.5907 0 3.02493 14.854 -2.0909 157242 
29 309.797 300.887 -73.7637 0 5.18762 21.1606 0.407947 185609 
33 311.571 299.444 -86.0818 0 7.16838 24.9359 -3.49548 156422 
37 299.941 284.768 -94.1901 0 8.50896 25.7254 -2.00285 165562 
41 288.311 269.936 -101.279 0 10.3831 27.6738 -1.34548 157938 
45 257.239 237.088 -99.8066 0 13.5582 32.2072 2.31286 161255 
49 230.994 209.192 -97.9649 0 17.6628 37.7167 2.72071 144442 
53 72.4112 34.2211 -63.8145 0 24.5333 13.1562 -0.867891 55800.8 
57 11.0572 -3.07628 -10.6206 0 5.34137 -1.54714 -0.031048 7179.29 
61 4.60183 -2.47214 -3.88141 0 2.7592 -1.75738 -0.173312 4288.68 
65 3.9573 -2.12589 -3.33778 0 1.60332 -1.02118 -0.54514 3344.01 
69 1.80715 -0.9708 -1.52425 0 1.15119 -0.733196 0.183927 2346.23 
73 5.027 -2.70055 -4.24002 0 2.03348 -1.29516 0.162537 4175.89 
77 3.6364 -1.95347 -3.06714 0 0.739033 -0.470692 0.580897 1568.86 
81 3.37079 -1.81081 -2.84309 0 0.765352 -0.487466 0.472478 2112.12 
85 4.02492 -2.16223 -3.39481 0 0.886157 -0.564412 0.354633 1647.67 
89 3.28866 -1.76671 -2.77381 0 0.892448 -0.568422 0.192009 1585.76 
93 3.97673 -2.13638 -3.35414 0 1.04448 -0.665272 0.0368748 1734.79 
97 3.25817 -1.75035 -2.74808 0 0.690036 -0.439508 -0.14436 1716.98 
101 3.69332 -1.98407 -3.11513 0 0.970401 -0.618062 -0.0958137 2147.95 
105 3.6008 -1.93437 -3.03711 0 0.329602 -0.209927 -0.161532 1583.73 
109 3.16568 -1.70062 -2.6701 0 0.752838 -0.479492 -0.188822 1329.36 
113 4.10092 -2.20304 -3.45892 0 0.266917 -0.170004 0.0970748 1754.86 
117 2.0686 -2.0686 0 0 0 -0.322204 0.411449 936.075 
121 4.21016 -4.21016 0 0 0 0.306711 -0.0717127 1567.23 
125 5.26387 -5.26387 0 0 0 -0.0121605 0.045713 1465.7 
129 5.57975 -5.57975 0 0 0 0.234953 0.0806327 1448.98 
133 6.12604 -6.12604 0 0 0 0.0395695 0.259525 1640.88 
2 342.666 342.547 9.00937 0 -0.0689776 2.62261 1.46178 174442 
6 340.362 340.332 -4.49392 0 0.0554947 4.20271 2.82719 197477 
10 338.179 337.709 -17.8216 0 0.331044 6.2731 1.67076 181236 
14 335.452 334.026 -30.8936 0 1.25381 13.5564 -1.46445 207956 
18 335.379 332.472 -44.0578 0 1.92525 14.5285 -1.36479 189954 
22 328.835 324.024 -56.0471 0 2.91769 16.868 -1.58989 175878 
26 322.991 315.843 -67.5738 0 4.63833 21.6798 1.07799 186852 
30 313.506 303.738 -77.6483 0 5.58975 21.8655 0.204983 185658 
34 301.771 289.188 -86.2312 0 7.76164 26.0297 -0.499137 197461 
38 284.891 269.583 -92.1307 0 8.63543 25.2681 2.60351 179679 
42 277.62 258.951 -100.086 0 13.118 33.9401 -1.07751 183485 
46 256.608 235.511 -101.895 0 13.8816 32.0847 -0.378843 148738 
50 204.532 179.697 -97.6862 0 21.6692 39.8612 0.360979 145886 
54 47.4728 13.9696 -45.3709 0 19.5596 6.02236 -0.149146 37796.3 
58 8.18802 -3.74833 -7.27968 0 3.86518 -1.9902 0.194387 6086.1 
62 4.29739 -2.30859 -3.62464 0 2.44066 -1.55449 -0.383523 4621.09 
66 4.98187 -2.67624 -4.20199 0 2.13305 -1.35854 0.115397 4445.48 
70 3.63425 -1.95235 -3.0653 0 2.00455 -1.27674 0.152719 3366.59 
74 4.15738 -2.23338 -3.50654 0 1.99757 -1.27229 -0.358001 3383.87 
78 3.56616 -1.91582 -3.00784 0 1.39162 -0.886382 -0.241347 3467.67 
82 4.41363 -2.3711 -3.72263 0 1.47559 -0.939862 -0.0200513 2350.33 
86 2.80512 -1.50694 -2.36597 0 0.660829 -0.420898 0.364574 1427.27 
90 3.21851 -1.72901 -2.71466 0 0.916477 -0.583721 -0.0466768 1792.16 
94 3.28735 -1.76598 -2.77272 0 0.843643 -0.537328 -0.0599149 1819.45 
98 3.32207 -1.78464 -2.80201 0 1.3248 -0.843785 0.470713 2486.99 
102 3.47876 -1.8688 -2.93416 0 0.630426 -0.401526 -0.110842 1373.67 
106 3.30052 -1.77306 -2.78383 0 0.622812 -0.396678 0.171046 1593.77 
110 4.41376 -2.37109 -3.7228 0 0.85832 -0.546673 0.22844 2378.24 
114 4.09473 -2.19973 -3.45369 0 0.587091 -0.373931 0.160368 1745.34 
118 2.79504 -2.79504 0 0 0 -0.168477 -0.0709121 973.686 
122 4.14602 -4.14602 0 0 0 -0.0623487 -0.0560974 1110.12 
126 5.55749 -5.55749 0 0 0 -0.0575255 -0.311399 1696.68 
130 5.8681 -5.8681 0 0 0 -0.062116 0.109196 1564.3 
134 6.54301 -6.54301 0 0 0 -0.226672 0.419179 2867.84 
3 341.408 341.362 5.60667 0 0.0194034 -1.18137 -0.669312 194768 
7 336.1 336.01 -7.76029 0 0.110606 4.78908 -0.024631 173528 
11 336.99 336.33 -21.0836 0 0.560978 8.94884 -0.869757 187472 
15 333.231 331.495 -33.9692 0 1.55158 15.1414 -3.53223 218127 
19 328.211 324.924 -46.329 0 2.37126 16.6306 -0.63767 200539 
23 326.965 321.616 -58.901 0 3.90468 21.3206 -0.901113 200111 
27 320.027 312.267 -70.0468 0 5.20724 23.2138 1.72898 208923 
31 309.619 299.199 -79.6472 0 5.2102 19.5724 0.55188 173507 
35 303.925 290.38 -89.7214 0 7.78213 25.1866 -0.643681 163188 
39 293.903 277.157 -97.7901 0 9.73287 27.5849 1.10177 161742 
43 275.119 255.625 -101.715 0 11.4823 28.8568 -0.115818 154565 
47 245.911 224.717 -99.8719 0 15.9674 35.9276 2.05506 160578 
51 150.949 116.279 -96.2545 0 26.1278 31.5633 1.43098 111239 
55 35.1099 3.68508 -34.916 0 13.9582 1.47316 -0.0190558 24063.8 
59 4.20702 -2.26004 -3.54841 0 2.04896 -1.30502 -0.127537 3172.83 
63 3.8178 -2.05092 -3.22014 0 1.32071 -0.841165 0.170018 1755.01 
67 5.74063 -3.08392 -4.84194 0 2.8313 -1.8033 0.515707 5065.82 
71 4.59386 -2.4679 -3.87467 0 2.68394 -1.70949 0.540205 4880.08 
75 3.78306 -2.03231 -3.19081 0 1.94162 -1.23667 -0.230014 3614.54 
79 2.23578 -1.20108 -1.88577 0 0.497962 -0.317161 0.175042 1747.51 
83 3.08955 -1.6597 -2.6059 0 1.23182 -0.784551 -0.292101 1978.58 
87 3.17055 -1.70325 -2.6742 0 1.20409 -0.766908 -0.236424 1905.74 
91 4.02462 -2.16207 -3.39456 0 0.99704 -0.635035 0.198732 1770.65 
95 3.45946 -1.85844 -2.91789 0 0.918297 -0.584876 -0.19562 2432.88 
99 3.87544 -2.08191 -3.26874 0 0.917964 -0.584663 -0.215733 2297.62 
103 3.6103 -1.93947 -3.04511 0 0.628288 -0.400165 0.0176577 1375.36 
107 3.4951 -1.87763 -2.94792 0 0.405408 -0.258219 -0.205701 1585.47 
111 4.67874 -2.51351 -3.94625 0 0.789774 -0.503037 0.248876 1920.3 
115 4.71874 -2.53495 -3.98002 0 0.544234 -0.346633 0.0761485 1973.48 
119 3.75627 -3.75627 0 0 0 0.37599 -0.0965359 1248.64 
123 4.63091 -4.63091 0 0 0 0.0558343 -0.196619 1586.6 
127 5.16071 -5.16071 0 0 0 -0.0750692 0.127989 1945.42 
131 5.4168 -5.4168 0 0 -1.68062e-15 -0.0234578 -0.0983322 1903.36 
4 340.637 340.629 2.22854 0 -0.0367807 5.62187 -3.56176 220504 
8 337.406 337.223 -11.1186 0 0.22638 6.86606 0.369141 172976 
12 333.521 332.645 -24.1496 0 0.740216 10.196 -2.43978 191097 
16 333.065 330.979 -37.2243 0 1.3965 12.4169 -2.71622 198735 
20 326.269 322.532 -49.2379 0 2.98289 19.5394 -0.748914 223514 
24 322.063 316.206 -61.1438 0 4.14385 21.4299 1.0749 205312 
28 311.136 302.907 -71.0868 0 4.34782 18.5264 0.86259 157061 
32 300.69 289.793 -80.2142 0 7.64347 27.6138 -0.812069 201970 
36 297.159 283.035 -90.5239 0 8.93512 27.9368 1.49342 188107 
40 286.697 269.408 -98.0546 0 11.3821 31.2727 1.05359 191394 
44 269.903 249.78 -102.263 0 12.7562 31.1574 1.49116 167252 
48 239.838 218.196 -99.5624 0 17.063 37.3946 -1.29951 152789 
52 107.904 68.3331 -83.5091 0 25.3378 20.7332 0.0442562 79489.2 
56 17.9029 -1.58088 -17.8329 0 7.84964 -0.695868 0.376698 11510.9 
60 3.87202 -2.08009 -3.26584 0 1.97426 -1.25746 0.590028 3254.35 
64 4.51096 -2.4234 -3.80472 0 1.70448 -1.08566 -1.17252 4424.5 
68 4.56371 -2.45172 -3.84923 0 2.84314 -1.81091 -0.661839 4177.91 
72 4.04917 -2.17524 -3.41527 0 1.91709 -1.22103 -0.377698 3952.24 
76 3.89631 -2.09314 -3.28634 0 2.02292 -1.28844 0.205182 3806.1 
80 3.97889 -2.13746 -3.35602 0 1.06453 -0.678002 -0.513747 2574.23 
84 3.76665 -2.02348 -3.17697 0 1.19906 -0.763707 -0.0231402 2539.78 
88 2.82722 -1.51881 -2.38462 0 0.564107 -0.359291 0.0647006 1274.66 
92 3.09958 -1.66509 -2.61436 0 0.565693 -0.36029 0.217713 1386.85 
96 3.75102 -2.01506 -3.1638 0 0.66813 -0.42554 -0.178888 1967.27 
100 4.39124 -2.35906 -3.70376 0 1.0943 -0.696999 -0.151809 2193.28 
104 3.63593 -1.9533 -3.0667 0 0.728423 -0.46396 -0.0103193 1405.27 
108 4.32774 -2.32489 -3.65024 0 0.982355 -0.625675 -0.135355 1628.89 
112 3.612 -1.94039 -3.04655 0 0.495288 -0.315456 -0.19619 1561.3 
116 4.0361 -2.16823 -3.40424 0 0.701588 -0.446855 0.0403076 1583.76 
120 3.56527 -3.56527 0 0 0 0.189523 0.21849 1208.97 
124 5.74493 -5.74493 0 0 0 0.254435 0.374413 1095.64 
128 5.32327 -5.32327 0 0 0 0.0227012 -0.0154009 1839.69 
132 6.40248 -6.40248 0 0 0 0.237893 -0.0536154 1829.75 
