ITEM: TIMESTEP
200
ITEM: NUMBER OF SURFS
4
ITEM: BOX BOUNDS oo oo pp
-2 1
-1 2
-0.5 0.5
ITEM: SURFS f_fxAVE[*] 
0 
0 
2.37879 
0 
