ITEM: TIMESTEP
17000
ITEM: NUMBER OF CELLS
26430
ITEM: BOX BOUNDS oo ao pp
-2.5 5
0 5
-0.0005 0.0005
ITEM: CELLS id proc f_avg_n f_avg_nrho f_avg_temp_tra f_avg_temp_rot f_avg_temp_vib f_avg_vel[1] f_avg_vel[2] f_avg_vel[3] f_avg_nrho_CO2 f_avg_nrho_O2 f_avg_nrho_C2 f_avg_nrho_CO f_avg_nrho_O f_avg_nrho_C 
74753 0 21.5425 2.05716e+20 300.287 297.924 299.344 5003.73 17.7865 3.9355 2.05716e+20 0 0 0 0 0 
140289 0 22.0475 2.10538e+20 301.946 299.324 301.016 4998.79 34.2734 -1.58174 2.10538e+20 0 0 0 0 0 
205825 0 20.925 1.99819e+20 299.925 302.352 300.635 4998.4 -0.515311 2.41723 1.99819e+20 0 0 0 0 0 
271361 0 20.89 1.99485e+20 303.37 304.722 298.689 4995.3 1.19848 -0.219868 1.99485e+20 0 0 0 0 0 
82945 0 23.09 2.20493e+20 303.259 299.403 300.282 5000.57 43.2087 0.821289 2.20493e+20 0 0 0 0 0 
148481 0 23.0175 2.19801e+20 303.665 302.28 301.819 5001.74 47.793 1.97916 2.19801e+20 0 0 0 0 0 
214017 0 20.735 1.98005e+20 299.261 302.52 301.271 4996.1 0.779938 -0.513204 1.98005e+20 0 0 0 0 0 
279553 0 21 2.00535e+20 304.885 303.301 298.444 4998.48 2.39716 1.67102 2.00535e+20 0 0 0 0 0 
91137 0 20.9275 1.99843e+20 299.659 306.813 300.113 5003.13 1.92412 0.694026 1.99843e+20 0 0 0 0 0 
156673 0 20.695 1.97623e+20 301.527 301.175 299.458 5000.86 7.46148 2.0337 1.97623e+20 0 0 0 0 0 
222209 0 21.01 2.00631e+20 303.366 303.325 299.945 4997.64 -3.93413 -2.67246 2.00631e+20 0 0 0 0 0 
287745 0 20.895 1.99533e+20 301.053 300.576 297.355 4995.1 -3.68653 -4.61604 1.99533e+20 0 0 0 0 0 
99329 0 20.7625 1.98267e+20 300.635 309.023 299.536 5000.88 2.54445 2.13906 1.98267e+20 0 0 0 0 0 
164865 0 20.9125 1.997e+20 302.656 305.736 299.475 5001.65 3.14453 1.0088 1.997e+20 0 0 0 0 0 
230401 0 21.065 2.01156e+20 295.889 302.125 301.766 4999.07 -4.09876 -3.31059 2.01156e+20 0 0 0 0 0 
295937 0 20.6575 1.97265e+20 302.613 300.703 298.573 4995.34 -5.53604 -0.532375 1.97265e+20 0 0 0 0 0 
75777 0 23.335 2.22833e+20 299.877 299.712 298.814 5002.03 49.0834 -1.73562 2.22833e+20 0 0 0 0 0 
141313 0 23.61 2.25459e+20 301.875 303.154 303.389 4998.49 53.3545 -0.16661 2.25459e+20 0 0 0 0 0 
206849 0 20.8175 1.98792e+20 301.834 302.762 299.8 4998.19 3.55994 0.200281 1.98792e+20 0 0 0 0 0 
272385 0 21.325 2.03639e+20 302.645 301.213 299.394 4995.36 6.44074 2.6222 2.03639e+20 0 0 0 0 0 
83969 0 23.6975 2.26294e+20 298.89 299.012 300.231 5001.15 51.2229 -1.22897 2.26294e+20 0 0 0 0 0 
149505 0 23.3575 2.23048e+20 298.654 299.848 300.636 5005.04 49.4505 -3.57012 2.23048e+20 0 0 0 0 0 
215041 0 20.7675 1.98315e+20 303.734 303.755 297.636 4999.06 6.82234 3.17342 1.98315e+20 0 0 0 0 0 
280577 0 20.99 2.0044e+20 300.894 301.766 302.664 4995.58 9.92165 0.86065 2.0044e+20 0 0 0 0 0 
92161 0 20.5325 1.96071e+20 299.561 305.131 299.389 5002.96 1.3993 4.12686 1.96071e+20 0 0 0 0 0 
157697 0 20.755 1.98196e+20 302.458 308.012 302.474 5001.05 2.08107 2.32451 1.98196e+20 0 0 0 0 0 
223233 0 21.03 2.00822e+20 298.305 303.375 298.678 4998.17 -1.70658 -3.60095 2.00822e+20 0 0 0 0 0 
288769 0 20.95 2.00058e+20 301.131 300.555 300.909 4998.72 -4.63364 -0.965753 2.00058e+20 0 0 0 0 0 
100353 0 20.7825 1.98458e+20 306.236 303.636 298.52 5001.27 1.10226 -0.491973 1.98458e+20 0 0 0 0 0 
165889 0 20.6275 1.96978e+20 302.236 305.283 299.191 5001.86 2.11842 -1.27957 1.96978e+20 0 0 0 0 0 
231425 0 20.94 1.99962e+20 299.351 300.481 299.634 4997.52 0.447635 -2.97297 1.99962e+20 0 0 0 0 0 
296961 0 20.9125 1.997e+20 300.44 302.737 298.727 4999.58 -0.730191 -0.907874 1.997e+20 0 0 0 0 0 
76801 0 20.9075 1.99652e+20 302.498 294.629 302.906 4999.01 0.992298 0.0513185 1.99652e+20 0 0 0 0 0 
142337 0 20.8325 1.98936e+20 300.663 298.912 299.784 5002.3 3.4059 -2.27972 1.98936e+20 0 0 0 0 0 
207873 0 20.9725 2.00273e+20 297.045 296.643 300.336 4998.83 -1.98898 -0.621229 2.00273e+20 0 0 0 0 0 
273409 0 21.235 2.02779e+20 298.027 297.874 298.87 5000.25 2.01058 4.13885 2.02779e+20 0 0 0 0 0 
84993 0 20.6975 1.97647e+20 302.896 295.834 298.804 4999.8 1.73991 -0.478696 1.97647e+20 0 0 0 0 0 
150529 0 21.0725 2.01228e+20 302.878 296.433 303.287 5000.04 4.03602 -0.787495 2.01228e+20 0 0 0 0 0 
216065 0 20.6675 1.9736e+20 296.301 301.739 299.527 5002.69 -2.17471 0.338029 1.9736e+20 0 0 0 0 0 
281601 0 21.115 2.01633e+20 295.59 298.957 298.77 4999.81 0.968672 -0.48082 2.01633e+20 0 0 0 0 0 
93185 0 21.0025 2.00559e+20 298.792 298.909 298.617 4997.44 -1.08236 1.2446 2.00559e+20 0 0 0 0 0 
158721 0 20.88 1.99389e+20 299.259 300.251 300.719 5002.01 2.96809 0.755958 1.99389e+20 0 0 0 0 0 
224257 0 20.9225 1.99795e+20 298.568 303.631 296.242 5001.3 0.00641205 -2.01016 1.99795e+20 0 0 0 0 0 
289793 0 21.0025 2.00559e+20 300.521 299.183 297.375 5002.81 -1.64748 -4.32219 2.00559e+20 0 0 0 0 0 
101377 0 21.115 2.01633e+20 301.059 297.547 297.527 5002.39 -1.41961 5.43533 2.01633e+20 0 0 0 0 0 
166913 0 20.785 1.98482e+20 300.201 297.353 298.78 4998.7 3.50886 -3.00837 1.98482e+20 0 0 0 0 0 
232449 0 20.7 1.9767e+20 301.009 298.743 297.854 5005.22 -0.765233 -0.876806 1.9767e+20 0 0 0 0 0 
297985 0 20.88 1.99389e+20 300.118 302.594 297.212 4999.8 -1.97392 -0.344192 1.99389e+20 0 0 0 0 0 
77825 0 20.6125 1.96835e+20 301.472 301.222 296.81 5000.42 3.46134 -1.8536 1.96835e+20 0 0 0 0 0 
143361 0 20.5375 1.96119e+20 300.562 296.847 298.781 4999.93 1.60797 -0.551777 1.96119e+20 0 0 0 0 0 
208897 0 21.1025 2.01514e+20 299.406 300.321 296.657 5001.64 -4.38685 1.93958 2.01514e+20 0 0 0 0 0 
274433 0 20.57 1.96429e+20 295.476 301.907 298.88 5000.1 -1.93649 2.43991 1.96429e+20 0 0 0 0 0 
86017 0 20.92 1.99771e+20 302.6 302.157 302.45 4997.7 2.60138 0.00010209 1.99771e+20 0 0 0 0 0 
151553 0 20.7625 1.98267e+20 299.304 300.688 297.461 4997.79 -3.34769 -0.470523 1.98267e+20 0 0 0 0 0 
217089 0 20.88 1.99389e+20 302.013 295.866 298.248 4999.91 1.76647 -1.94999 1.99389e+20 0 0 0 0 0 
282625 0 20.7875 1.98506e+20 298.292 297.594 296.846 5000.72 0.24151 1.93608 1.98506e+20 0 0 0 0 0 
94209 0 21.08 2.01299e+20 300.117 299.393 299.755 5003.42 0.561468 3.72247 2.01299e+20 0 0 0 0 0 
159745 0 20.9475 2.00034e+20 299.143 298.133 298.958 4999.65 3.20378 1.7052 2.00034e+20 0 0 0 0 0 
225281 0 20.77 1.98339e+20 296.916 299.536 298.543 5002.64 -0.169569 -3.96686 1.98339e+20 0 0 0 0 0 
290817 0 20.635 1.9705e+20 299.315 301.734 296.388 5005.28 -2.88038 1.49529 1.9705e+20 0 0 0 0 0 
102401 0 21.16 2.02063e+20 297.361 303.858 298.647 5002.72 0.494929 0.312549 2.02063e+20 0 0 0 0 0 
167937 0 20.9475 2.00034e+20 296.596 303.348 298.169 5000.39 1.87447 1.59845 2.00034e+20 0 0 0 0 0 
233473 0 20.8375 1.98983e+20 295.609 303.917 297.747 4996.73 -2.19262 -0.397197 1.98983e+20 0 0 0 0 0 
299009 0 20.7825 1.98458e+20 303.28 300.754 296.639 5003.96 -1.1597 -1.57957 1.98458e+20 0 0 0 0 0 
74757 0 20.3175 1.94018e+20 302.212 298.02 295.338 5002.05 -0.883807 2.31127 1.94018e+20 0 0 0 0 0 
140293 0 19.77 1.8879e+20 297.584 292.261 297.548 5005.26 -0.803815 2.35544 1.8879e+20 0 0 0 0 0 
205829 0 20.455 1.95331e+20 299.67 303.179 297.573 5001.34 0.11649 1.50844 1.95331e+20 0 0 0 0 0 
271365 0 20.55 1.96238e+20 301.337 296.881 300.795 5001.17 2.13156 1.85996 1.96238e+20 0 0 0 0 0 
82949 0 19.975 1.90747e+20 301.564 297.28 294.96 5004.83 0.565857 1.28146 1.90747e+20 0 0 0 0 0 
148485 0 20.045 1.91416e+20 305.681 294.444 296.624 5002.96 3.48016 2.01377 1.91416e+20 0 0 0 0 0 
214021 0 20.5075 1.95832e+20 307.496 301.483 300.649 5001.98 1.56318 0.842537 1.95832e+20 0 0 0 0 0 
279557 0 20.4775 1.95546e+20 302.482 297.908 299.363 5004.1 0.180309 3.9906 1.95546e+20 0 0 0 0 0 
91141 0 21.11 2.01586e+20 301.596 303.014 300.28 4996.14 7.22099 0.109032 2.01586e+20 0 0 0 0 0 
156677 0 20.86 1.99198e+20 296.885 300.827 299.404 4998.13 6.30453 -2.06893 1.99198e+20 0 0 0 0 0 
222213 0 20.6475 1.97169e+20 302.564 299.587 298.944 5001.07 4.87112 -0.37272 1.97169e+20 0 0 0 0 0 
287749 0 20.4025 1.9483e+20 301.122 303.856 300.201 4999.45 3.88064 -2.53374 1.9483e+20 0 0 0 0 0 
99333 0 20.5825 1.96548e+20 300.377 300.93 301.044 4995.14 6.36936 -2.12859 1.96548e+20 0 0 0 0 0 
164869 0 20.8575 1.99174e+20 297.55 304.982 300.46 4995.27 6.82068 -2.73634 1.99174e+20 0 0 0 0 0 
230405 0 20.7 1.9767e+20 301.138 298.717 298.905 4999.1 3.37529 -0.270343 1.9767e+20 0 0 0 0 0 
295941 0 20.455 1.95331e+20 303.215 303.809 297.46 5001.19 7.47645 -2.19825 1.95331e+20 0 0 0 0 0 
75781 0 19.59 1.87071e+20 299.08 303.148 295.817 5002.66 2.40685 2.5741 1.87071e+20 0 0 0 0 0 
141317 0 20.0375 1.91344e+20 301.638 297.723 294.906 5005.9 1.47695 0.518833 1.91344e+20 0 0 0 0 0 
206853 0 20.465 1.95426e+20 301.809 299.156 301.31 4999.56 0.313463 0.0294653 1.95426e+20 0 0 0 0 0 
272389 0 20.4675 1.9545e+20 304.84 299.39 298.916 5001.94 -0.863032 5.96968 1.9545e+20 0 0 0 0 0 
83973 0 19.785 1.88933e+20 304.433 295.085 296.764 5000.32 0.534328 1.91561 1.88933e+20 0 0 0 0 0 
149509 0 20.1175 1.92108e+20 303.049 298.814 295.694 5003.94 -3.1257 -1.3994 1.92108e+20 0 0 0 0 0 
215045 0 20.365 1.94471e+20 302.543 301.569 299.469 5001.45 2.00993 1.26578 1.94471e+20 0 0 0 0 0 
280581 0 20.2975 1.93827e+20 299.018 299.674 300.714 5002.91 0.577443 3.4333 1.93827e+20 0 0 0 0 0 
92165 0 20.74 1.98052e+20 298.389 299.268 300.238 4995.97 5.97231 -2.6792 1.98052e+20 0 0 0 0 0 
157701 0 20.6475 1.97169e+20 297.438 302.886 300.128 4996.88 4.93525 -5.27433 1.97169e+20 0 0 0 0 0 
223237 0 20.4675 1.9545e+20 300.221 302.879 300.112 4997.7 2.79098 -2.09939 1.9545e+20 0 0 0 0 0 
288773 0 20.4625 1.95402e+20 303.479 299.681 298.048 5001.66 6.41293 -2.06916 1.95402e+20 0 0 0 0 0 
100357 0 20.685 1.97527e+20 297.695 299.463 299.865 4993.74 4.47786 -2.90058 1.97527e+20 0 0 0 0 0 
165893 0 20.53 1.96047e+20 297.275 302.745 301.371 4996.76 9.39616 -6.04186 1.96047e+20 0 0 0 0 0 
231429 0 20.3175 1.94018e+20 298.53 307.258 299.998 5000.65 1.34768 -6.20992 1.94018e+20 0 0 0 0 0 
296965 0 20.535 1.96095e+20 303.606 301.017 297.543 4998.28 6.15424 -0.154568 1.96095e+20 0 0 0 0 0 
76805 0 20.5875 1.96596e+20 298.094 301.588 301.438 5000.83 3.29285 -4.0025 1.96596e+20 0 0 0 0 0 
142341 0 20.6375 1.97074e+20 301.321 305.434 299.031 5003.03 -0.988076 1.75445 1.97074e+20 0 0 0 0 0 
207877 0 20.5825 1.96548e+20 298.842 304.724 299.726 4999.38 -1.53891 -0.457487 1.96548e+20 0 0 0 0 0 
273413 0 20.3175 1.94018e+20 301.194 298.952 297.284 5000.07 -0.222676 2.58772 1.94018e+20 0 0 0 0 0 
84997 0 20.34 1.94233e+20 298.776 304.567 301.303 5003.16 -0.896442 -0.0735752 1.94233e+20 0 0 0 0 0 
150533 0 20.625 1.96954e+20 298.476 304.208 300.774 5001.66 2.88386 -0.592885 1.96954e+20 0 0 0 0 0 
216069 0 20.2675 1.9354e+20 298.451 303.147 298.226 5000.29 -2.84173 -0.00538014 1.9354e+20 0 0 0 0 0 
281605 0 20.345 1.9428e+20 299.928 302.426 297.957 4995.32 0.0362998 -1.1891 1.9428e+20 0 0 0 0 0 
93189 0 20.4825 1.95593e+20 300.141 292.062 298.911 5001.81 -3.54718 2.40788 1.95593e+20 0 0 0 0 0 
158725 0 20.475 1.95522e+20 301.642 299.126 294.876 5001.81 -3.59999 2.97123 1.95522e+20 0 0 0 0 0 
224261 0 20.6225 1.9693e+20 302.029 298.974 297.074 5003.5 0.308627 0.135075 1.9693e+20 0 0 0 0 0 
289797 0 20.7975 1.98601e+20 300.105 298.338 298.857 5001.24 1.19986 -4.16288 1.98601e+20 0 0 0 0 0 
101381 0 20.4475 1.95259e+20 300.373 291.252 299.084 5003.12 -2.30345 4.47902 1.95259e+20 0 0 0 0 0 
166917 0 20.39 1.9471e+20 303.36 296.4 296.784 5004.08 -3.88067 3.54795 1.9471e+20 0 0 0 0 0 
232453 0 20.385 1.94662e+20 299.063 299.897 294.862 5000.54 -0.896595 -1.20969 1.94662e+20 0 0 0 0 0 
297989 0 20.5975 1.96692e+20 301.171 298.923 298.353 5003.59 0.689263 -3.98644 1.96692e+20 0 0 0 0 0 
77829 0 20.6775 1.97456e+20 300.723 304.327 299.879 5000.89 -3.88262 -0.812627 1.97456e+20 0 0 0 0 0 
143365 0 20.5625 1.96357e+20 300.304 298.685 300.851 5006.55 -1.00818 1.53249 1.96357e+20 0 0 0 0 0 
208901 0 20.2625 1.93493e+20 301.016 299.27 298.723 5001.15 -2.53178 3.62451 1.93493e+20 0 0 0 0 0 
274437 0 20.085 1.91798e+20 304.414 303.02 298.27 5002.76 2.87612 -3.84803 1.91798e+20 0 0 0 0 0 
86021 0 20.655 1.97241e+20 299.806 303.369 299.639 5000.95 0.246057 -0.573029 1.97241e+20 0 0 0 0 0 
151557 0 20.7825 1.98458e+20 300.79 297.802 300.515 5004.53 -1.3675 0.427421 1.98458e+20 0 0 0 0 0 
217093 0 20.4275 1.95068e+20 300.533 296.695 300.235 4996.58 -2.1552 -1.91046 1.95068e+20 0 0 0 0 0 
282629 0 20.3275 1.94113e+20 302.474 304.923 296.182 5003.68 0.221256 2.86498 1.94113e+20 0 0 0 0 0 
94213 0 20.555 1.96286e+20 298.089 297.911 295.935 5000.15 -1.34706 3.58777 1.96286e+20 0 0 0 0 0 
159749 0 20.3025 1.93875e+20 298.63 293.919 297.903 5003.16 -4.74988 3.83143 1.93875e+20 0 0 0 0 0 
225285 0 20.5875 1.96596e+20 299.744 298.752 297.466 5002.99 0.220901 -3.98405 1.96596e+20 0 0 0 0 0 
290821 0 20.3925 1.94734e+20 303.241 302.38 298.3 5001.4 1.75081 1.36939 1.94734e+20 0 0 0 0 0 
102405 0 20.32 1.94042e+20 302.771 299.035 296.241 5002.31 -2.44429 1.01745 1.94042e+20 0 0 0 0 0 
167941 0 20.18 1.92705e+20 300.06 294.031 295.61 5002.36 -2.65584 2.48081 1.92705e+20 0 0 0 0 0 
233477 0 20.535 1.96095e+20 299.425 295.915 295.908 5002.78 -1.82518 -1.83789 1.96095e+20 0 0 0 0 0 
299013 0 20.3475 1.94304e+20 299.856 295.864 296.896 5002.41 -1.1224 -4.0395 1.94304e+20 0 0 0 0 0 
74761 0 20.1275 1.92203e+20 495.308 328.6 306.991 4979.49 -4.96453 6.74975 1.92203e+20 0 0 0 0 0 
140297 0 21.62 2.06456e+20 4068.78 1246.32 497.273 4609.95 -0.121835 12.3704 2.06456e+20 0 0 0 0 0 
205833 0 19.3425 1.84707e+20 457.308 333.296 309.976 4989.44 -0.670281 0.354726 1.84707e+20 0 0 0 0 0 
271369 0 21.125 2.01729e+20 4497.11 1387.22 561.823 4568.03 14.4587 0.643883 2.01729e+20 0 0 0 0 0 
82953 0 38.2525 3.65284e+20 14656.5 6583.89 2808.67 2563.59 2.9445 22.8732 3.65284e+20 0 0 0 0 0 
148489 0 82.44 7.87244e+20 13742.9 9254.42 6777.73 1179.11 9.80227 -4.15087 7.87244e+20 0 0 0 0 0 
214025 0 37.0175 3.53491e+20 14802.4 6252.66 2778.14 2600.96 12.6461 -8.11465 3.53491e+20 0 0 0 0 0 
279561 0 81.6475 7.79676e+20 13835.5 9286.58 6729.74 1167.87 -2.38097 -10.4664 7.79676e+20 0 0 0 0 0 
91145 0 19.515 1.86355e+20 495.041 314.594 309.339 4981.93 1.85766 -2.80629 1.86355e+20 0 0 0 0 0 
156681 0 21.0175 2.00702e+20 3776.53 1137.05 479.572 4646.17 2.1334 -5.57199 2.00702e+20 0 0 0 0 0 
222217 0 20.66 1.97288e+20 356.177 317.292 298.74 4992.01 -1.38302 -0.337828 1.97288e+20 0 0 0 0 0 
287753 0 21.8725 2.08867e+20 3499.37 1107.73 459.63 4679.16 9.45754 -4.57543 2.08867e+20 0 0 0 0 0 
99337 0 37.1175 3.54446e+20 14657.4 6346.96 2871.22 2594.01 18.717 2.26483 3.54446e+20 0 0 0 0 0 
164873 0 83.55 7.97844e+20 13818 9441.12 6823.7 1156.02 -6.2689 5.97817 7.97844e+20 0 0 0 0 0 
230409 0 38.2 3.64783e+20 14517.8 6339.49 2716.15 2664.68 11.4682 10.7196 3.64783e+20 0 0 0 0 0 
295945 0 82.9975 7.92568e+20 13837.7 9431.85 6638.33 1203.83 1.26481 -13.5338 7.92568e+20 0 0 0 0 0 
75785 0 117.257 1.11973e+21 12394.1 9941.19 8518.35 810.661 -0.0755689 11.5881 1.11973e+21 0 0 0 0 0 
141321 0 141.66 1.35275e+21 11964 10100.2 9291.66 646.325 12.3789 -9.53518 1.35275e+21 0 0 0 0 0 
206857 0 117.715 1.1241e+21 12493.6 9903.53 8613.91 786.541 6.18834 -11.6747 1.1241e+21 0 0 0 0 0 
272393 0 143.308 1.36849e+21 11957.8 10239.4 9393.22 621.692 18.0462 -16.6505 1.36849e+21 0 0 0 0 0 
83977 0 162.903 1.5556e+21 11528 10411.2 9562.14 516.426 14.1588 5.68809 1.5556e+21 0 0 0 0 0 
149513 0 186.752 1.78336e+21 11134.4 10637.4 9883.82 418.123 6.74959 7.84116 1.78336e+21 0 0 0 0 0 
215049 0 167.232 1.59695e+21 11557.6 10463.6 9733.56 496.78 17.8037 1.94325 1.59695e+21 0 0 0 0 0 
280585 0 187.752 1.7929e+21 11170.9 10610 9958.83 415.418 16.1958 11.0132 1.7929e+21 0 0 0 0 0 
92169 0 119.795 1.14396e+21 12556.1 10011.6 8721.06 767.617 22.2047 -20.0069 1.14396e+21 0 0 0 0 0 
157705 0 145.045 1.38508e+21 12043.1 10305.5 9478.23 596.107 33.8939 -22.7233 1.38508e+21 0 0 0 0 0 
223241 0 119.067 1.13701e+21 12646.3 10042.4 8741.88 801.9 35.0171 -18.0444 1.13701e+21 0 0 0 0 0 
288777 0 144.292 1.37789e+21 12072.3 10282 9457.3 638.324 30.1602 -23.3323 1.37789e+21 0 0 0 0 0 
100361 0 165.037 1.57599e+21 11644.6 10423.8 9684.47 495.145 17.5848 6.06151 1.57599e+21 0 0 0 0 0 
165897 0 186.205 1.77813e+21 11202.1 10669.5 9942.61 411.259 24.839 19.954 1.77813e+21 0 0 0 0 0 
231433 0 168.035 1.60462e+21 11480.9 10543.8 9656.11 495.499 34.9501 8.92705 1.60462e+21 0 0 0 0 0 
296969 0 188.958 1.80441e+21 11199.4 10581.1 9936.73 425.865 31.4117 17.5234 1.80441e+21 0 0 0 0 0 
76809 0 20.4375 1.95164e+20 379.139 318.802 305.072 4995.27 2.5102 -0.451497 1.95164e+20 0 0 0 0 0 
142345 0 21.8875 2.0901e+20 3361.44 1010.31 448.868 4706.08 -0.376075 7.77213 2.0901e+20 0 0 0 0 0 
207881 0 19.9375 1.90389e+20 372.17 310.403 301.366 4995.37 -3.23394 -3.94046 1.90389e+20 0 0 0 0 0 
273417 0 21.3625 2.03997e+20 3492.67 1072.08 465.841 4679.61 -6.91671 -2.11886 2.03997e+20 0 0 0 0 0 
85001 0 37.7225 3.60223e+20 14435.4 6122.47 2644.57 2706.05 3.11065 -8.33567 3.60223e+20 0 0 0 0 0 
150537 0 82.08 7.83806e+20 13958 9365.36 6665.94 1208.59 5.35088 0.739186 7.83806e+20 0 0 0 0 0 
216073 0 37.375 3.56905e+20 14598.3 6443.03 2635.46 2657.32 11.6091 -1.06449 3.56905e+20 0 0 0 0 0 
281609 0 82.025 7.83281e+20 13884.4 9462.82 6731.21 1175.09 26.3179 -12.8383 7.83281e+20 0 0 0 0 0 
93193 0 19.87 1.89745e+20 389.067 305.477 297.523 4994.86 -4.1585 -0.97218 1.89745e+20 0 0 0 0 0 
158729 0 21.0525 2.01037e+20 3274.8 922.185 419.027 4709.86 26.741 -2.80799 2.01037e+20 0 0 0 0 0 
224265 0 19.7725 1.88813e+20 417.602 311.357 299.032 4991.12 -5.07002 4.67311 1.88813e+20 0 0 0 0 0 
289801 0 21.31 2.03496e+20 2685.06 878.955 415.667 4769.96 5.01551 6.74475 2.03496e+20 0 0 0 0 0 
101385 0 36.73 3.50746e+20 14484.1 6254.88 2499.33 2684.57 25.7128 10.5021 3.50746e+20 0 0 0 0 0 
166921 0 80.98 7.73302e+20 13940.1 9459.63 6879.93 1169.36 31.8468 -7.18136 7.73302e+20 0 0 0 0 0 
232457 0 36.46 3.48167e+20 14306.4 6081.91 2367.7 2752.43 39.6313 17.524 3.48167e+20 0 0 0 0 0 
297993 0 80.865 7.72204e+20 14011.5 9342.19 6649.57 1203.54 48.958 30.7724 7.72204e+20 0 0 0 0 0 
77833 0 117.69 1.12386e+21 12831.5 10116.7 8788.54 807.441 41.6493 -20.0981 1.12386e+21 0 0 0 0 0 
143369 0 143.757 1.37278e+21 12172.5 10337.3 9488.54 628.06 45.7794 -22.8691 1.37278e+21 0 0 0 0 0 
208905 0 117.305 1.12018e+21 12755.8 10185.3 8768.07 806.652 45.5883 -15.2126 1.12018e+21 0 0 0 0 0 
274441 0 145.255 1.38708e+21 12016.8 10270.8 9491.71 624.656 51.4989 -8.7346 1.38708e+21 0 0 0 0 0 
86025 0 169.3 1.6167e+21 11497.5 10462.6 9635.82 504.516 30.7535 -0.483206 1.6167e+21 0 0 0 0 0 
151561 0 190.355 1.81776e+21 11046.2 10455.1 9920.2 419.372 43.8368 0.840551 1.81776e+21 0 0 0 0 0 
217097 0 172.38 1.64611e+21 11539.9 10576.4 9728.98 489.022 45.9425 2.6355 1.64611e+21 0 0 0 0 0 
282633 0 189.577 1.81033e+21 11081.6 10633.4 9985.35 408.818 59.7851 -3.47967 1.81033e+21 0 0 0 0 0 
94217 0 115.888 1.10664e+21 12643.4 10040.6 8796.4 793.23 48.627 19.6425 1.10664e+21 0 0 0 0 0 
159753 0 143.29 1.36832e+21 12011.6 10161 9371.4 608.231 64.5276 -20.745 1.36832e+21 0 0 0 0 0 
225289 0 117.92 1.12605e+21 12701.4 10006.3 8636.71 797.368 54.7426 9.47522 1.12605e+21 0 0 0 0 0 
290825 0 145.63 1.39066e+21 12006.5 10161.2 9283.58 613.122 78.6041 13.4619 1.39066e+21 0 0 0 0 0 
102409 0 168.995 1.61378e+21 11543.8 10526.6 9673.63 484.437 71.0551 0.688891 1.61378e+21 0 0 0 0 0 
167945 0 190.812 1.82213e+21 11095.1 10743.1 10110.4 386.935 69.981 0.152933 1.82213e+21 0 0 0 0 0 
233481 0 176.463 1.68509e+21 11311.8 10420.9 9616.14 459.914 80.3589 5.93006 1.68509e+21 0 0 0 0 0 
299017 0 193.405 1.84688e+21 11090.8 10568.7 10120.5 382.256 86.2941 -3.77995 1.84688e+21 0 0 0 0 0 
74785 0 20.945 2.0001e+20 298.546 298.122 298.793 4999.71 3.44054 -1.3488 2.0001e+20 0 0 0 0 0 
140321 0 20.6675 1.9736e+20 299.925 302 298.4 4997.58 -3.09055 -0.814743 1.9736e+20 0 0 0 0 0 
205857 0 20.8075 1.98697e+20 300.088 302.793 299.092 4998.53 -1.01252 4.40224 1.98697e+20 0 0 0 0 0 
271393 0 20.935 1.99915e+20 299.206 298.921 298.049 4998.99 -3.33237 0.703327 1.99915e+20 0 0 0 0 0 
82977 0 20.6875 1.97551e+20 296.591 296.278 299.655 4998.85 -0.686545 -0.784231 1.97551e+20 0 0 0 0 0 
148513 0 20.705 1.97718e+20 300.943 296.598 299.288 4998.89 1.71868 -3.30876 1.97718e+20 0 0 0 0 0 
214049 0 20.7625 1.98267e+20 303.662 301.343 296.675 4998.95 0.629944 1.50176 1.98267e+20 0 0 0 0 0 
279585 0 20.8275 1.98888e+20 301.233 300.263 296.976 4996.75 -1.40608 -0.2797 1.98888e+20 0 0 0 0 0 
91169 0 20.9375 1.99938e+20 302.143 294.952 297.487 5000.19 -4.01248 -0.949375 1.99938e+20 0 0 0 0 0 
156705 0 20.4325 1.95116e+20 302.65 298.992 296.412 4999.7 -4.3192 -0.616247 1.95116e+20 0 0 0 0 0 
222241 0 20.4875 1.95641e+20 302.032 297.517 297.314 5002.22 -2.66517 -1.05096 1.95641e+20 0 0 0 0 0 
287777 0 20.5 1.95761e+20 305.429 297.272 297.756 5003.06 -0.707162 -1.93862 1.95761e+20 0 0 0 0 0 
99361 0 20.85 1.99103e+20 299.887 303.479 297.337 4999.32 -6.47585 -3.36329 1.99103e+20 0 0 0 0 0 
164897 0 20.685 1.97527e+20 302.496 297.943 295.993 4999.63 -4.42198 2.77101 1.97527e+20 0 0 0 0 0 
230433 0 20.5375 1.96119e+20 297.862 291.827 296.85 5000.34 -1.05505 -0.518408 1.96119e+20 0 0 0 0 0 
295969 0 20.3575 1.944e+20 302.753 296.814 297.696 5002.37 -2.36734 -1.18295 1.944e+20 0 0 0 0 0 
75809 0 20.7975 1.98601e+20 299.903 295.582 298.227 4999.56 -5.47756 -0.409339 1.98601e+20 0 0 0 0 0 
141345 0 20.56 1.96334e+20 298.512 296.059 299.718 4996.63 1.47438 -1.34726 1.96334e+20 0 0 0 0 0 
206881 0 20.9325 1.99891e+20 305.126 296.785 297.689 5001.46 0.487925 1.95546 1.99891e+20 0 0 0 0 0 
272417 0 20.9625 2.00177e+20 303.464 299.51 297.47 4994.73 -0.170165 0.818963 2.00177e+20 0 0 0 0 0 
84001 0 20.5625 1.96357e+20 295.752 296.743 298.406 5000.97 0.611593 -1.17049 1.96357e+20 0 0 0 0 0 
149537 0 20.535 1.96095e+20 299.078 295.428 300.752 4997.56 -3.91088 -3.72312 1.96095e+20 0 0 0 0 0 
215073 0 20.71 1.97766e+20 303.655 301.34 297.897 5002.59 -0.844533 2.41539 1.97766e+20 0 0 0 0 0 
280609 0 20.6275 1.96978e+20 301.225 299.013 297.465 4994.73 0.183226 0.208091 1.96978e+20 0 0 0 0 0 
92193 0 20.4925 1.95689e+20 301.342 296.347 298.22 5000.83 -4.4625 -0.325389 1.95689e+20 0 0 0 0 0 
157729 0 21.115 2.01633e+20 301.493 297.524 296.419 5003.17 -4.02401 -3.57735 2.01633e+20 0 0 0 0 0 
223265 0 20.3725 1.94543e+20 302.943 296.599 297.401 5000.25 -1.04276 0.769466 1.94543e+20 0 0 0 0 0 
288801 0 20.3425 1.94257e+20 299.799 296.318 296.249 5001.77 -1.65438 -1.49072 1.94257e+20 0 0 0 0 0 
100385 0 20.3075 1.93922e+20 305.358 296.748 297.22 4999.15 -7.945 3.30478 1.93922e+20 0 0 0 0 0 
165921 0 20.9575 2.00129e+20 302.778 298.562 297.513 5003.61 -4.94923 0.611112 2.00129e+20 0 0 0 0 0 
231457 0 20.23 1.93182e+20 300.525 301.026 298.401 4998.7 -2.5187 -2.49711 1.93182e+20 0 0 0 0 0 
296993 0 20.21 1.92991e+20 299.09 293.673 297.197 5002.6 -0.904156 -1.42626 1.92991e+20 0 0 0 0 0 
76833 0 20.6425 1.97121e+20 297.988 303.794 300.856 5000.22 -3.00157 -2.30924 1.97121e+20 0 0 0 0 0 
142369 0 20.605 1.96763e+20 296.471 302.337 300.256 5000.59 -1.18027 -1.29097 1.96763e+20 0 0 0 0 0 
207905 0 20.9025 1.99604e+20 303.075 300.834 296.705 4999.58 -1.86419 5.39198 1.99604e+20 0 0 0 0 0 
273441 0 20.6025 1.96739e+20 298.238 299.943 297.815 5005.09 -2.9308 2.97628 1.96739e+20 0 0 0 0 0 
85025 0 20.485 1.95617e+20 302.245 301.558 298.531 4998.98 1.7245 -1.25273 1.95617e+20 0 0 0 0 0 
150561 0 20.7825 1.98458e+20 298.381 302.203 299.434 5000.98 0.457275 -1.18359 1.98458e+20 0 0 0 0 0 
216097 0 20.455 1.95331e+20 299.398 300.869 294.755 5001.54 -1.21861 2.90995 1.95331e+20 0 0 0 0 0 
281633 0 20.97 2.00249e+20 300.552 298.464 296.421 4999.48 -1.56449 5.81985 2.00249e+20 0 0 0 0 0 
93217 0 20.63 1.97002e+20 302.931 297.953 296.827 5000.42 2.1779 2.6804 1.97002e+20 0 0 0 0 0 
158753 0 20.565 1.96381e+20 305.312 299.993 297.001 5003.11 1.84417 2.42064 1.96381e+20 0 0 0 0 0 
224289 0 20.6275 1.96978e+20 298.914 301.313 298.384 5002.38 0.663582 0.542334 1.96978e+20 0 0 0 0 0 
289825 0 20.7025 1.97694e+20 297.425 299.757 299.655 5004.64 3.84335 4.12807 1.97694e+20 0 0 0 0 0 
101409 0 20.73 1.97957e+20 300.651 296.577 299.16 5001.26 -0.664065 2.39575 1.97957e+20 0 0 0 0 0 
166945 0 20.58 1.96525e+20 301.927 301.286 298.745 5002.79 0.10838 -0.449907 1.96525e+20 0 0 0 0 0 
232481 0 20.6375 1.97074e+20 300.478 298.906 298.674 5002.23 -1.3615 3.23139 1.97074e+20 0 0 0 0 0 
298017 0 20.69 1.97575e+20 299.443 306.816 300.313 5003.87 -2.45907 4.62526 1.97575e+20 0 0 0 0 0 
77857 0 20.6925 1.97599e+20 299.084 303.276 301.703 4999.08 0.371011 -3.16782 1.97599e+20 0 0 0 0 0 
143393 0 20.8075 1.98697e+20 299.586 303.471 297.441 5002.48 0.0523013 1.00921 1.98697e+20 0 0 0 0 0 
208929 0 20.2925 1.93779e+20 299.826 300.336 297.772 4999.39 -1.83343 3.37326 1.93779e+20 0 0 0 0 0 
274465 0 20.41 1.94901e+20 301.359 300.124 295.453 5001.64 2.24828 1.36731 1.94901e+20 0 0 0 0 0 
86049 0 20.625 1.96954e+20 296.095 301.512 299.132 5000.1 -2.93436 -3.45943 1.96954e+20 0 0 0 0 0 
151585 0 20.7525 1.98172e+20 299.722 304.552 298.766 5000.12 0.280402 1.46431 1.98172e+20 0 0 0 0 0 
217121 0 20.7425 1.98076e+20 299.031 295.849 296.92 4999 -2.42589 3.72744 1.98076e+20 0 0 0 0 0 
282657 0 20.065 1.91607e+20 297.578 302.395 296.346 4999.09 -2.15619 0.73418 1.91607e+20 0 0 0 0 0 
94241 0 20.4275 1.95068e+20 302.498 291.372 297.391 5005.64 2.94869 5.10639 1.95068e+20 0 0 0 0 0 
159777 0 20.6025 1.96739e+20 299.341 299.191 299.617 5002.94 1.31309 1.49858 1.96739e+20 0 0 0 0 0 
225313 0 20.6475 1.97169e+20 301.152 297.509 298.192 5003.47 0.686953 3.32506 1.97169e+20 0 0 0 0 0 
290849 0 20.6425 1.97121e+20 300.702 302.644 299.031 5002.01 -1.34388 -0.429034 1.97121e+20 0 0 0 0 0 
102433 0 20.6475 1.97169e+20 300.544 297.698 300.056 5000.87 3.98873 2.72575 1.97169e+20 0 0 0 0 0 
167969 0 20.8025 1.98649e+20 298.453 297.393 300.097 5006.65 -0.20046 4.83381 1.98649e+20 0 0 0 0 0 
233505 0 20.7775 1.98411e+20 301.362 305.642 300.195 5003.01 -1.13485 3.84602 1.98411e+20 0 0 0 0 0 
299041 0 20.4375 1.95164e+20 302.701 296.418 298.573 5000.86 -2.01349 0.86798 1.95164e+20 0 0 0 0 0 
74789 0 20.6125 1.96835e+20 297.314 294.749 298.988 5002.95 -0.884121 -0.0888165 1.96835e+20 0 0 0 0 0 
140325 0 20.08 1.9175e+20 298.577 299.129 298.596 5005.94 -2.2834 -1.54119 1.9175e+20 0 0 0 0 0 
205861 0 20.5425 1.96166e+20 304.727 301.951 297.149 5000.18 -1.28789 -0.726845 1.96166e+20 0 0 0 0 0 
271397 0 20.55 1.96238e+20 301.765 300.701 297.711 4997.44 -1.27789 0.577387 1.96238e+20 0 0 0 0 0 
82981 0 20.35 1.94328e+20 296.871 298.586 301.552 5003.48 -1.39974 -1.23978 1.94328e+20 0 0 0 0 0 
148517 0 20.2425 1.93302e+20 300.477 301.746 299.298 5001.91 -2.92238 1.7639 1.93302e+20 0 0 0 0 0 
214053 0 20.49 1.95665e+20 301.303 300.888 299.202 4999.76 -1.25516 -2.04487 1.95665e+20 0 0 0 0 0 
279589 0 20.5 1.95761e+20 304.395 298.216 296.44 4998.25 1.95358 -0.432581 1.95761e+20 0 0 0 0 0 
91173 0 19.975 1.90747e+20 301.994 298.193 296.77 4998.78 1.55747 1.70409 1.90747e+20 0 0 0 0 0 
156709 0 20.085 1.91798e+20 302.199 295.268 298.64 5003.36 3.19085 0.245321 1.91798e+20 0 0 0 0 0 
222245 0 19.94 1.90413e+20 293.151 297.185 297.582 5003.3 -1.708 6.40896 1.90413e+20 0 0 0 0 0 
287781 0 19.945 1.90461e+20 297.871 294.108 296.868 5000.68 -2.34888 0.443308 1.90461e+20 0 0 0 0 0 
99365 0 20.3175 1.94018e+20 298.671 304.588 296.647 4999.17 1.41124 -0.277992 1.94018e+20 0 0 0 0 0 
164901 0 19.9575 1.9058e+20 305.299 295.988 296.949 5003.84 0.812989 0.376725 1.9058e+20 0 0 0 0 0 
230437 0 19.81 1.89172e+20 297.865 295.608 296.202 5001.69 -1.48417 0.16276 1.89172e+20 0 0 0 0 0 
295973 0 19.8525 1.89577e+20 295.378 298.573 298.081 5002.23 2.13906 4.37179 1.89577e+20 0 0 0 0 0 
75813 0 20.15 1.92418e+20 299.317 298.517 297.842 5001.75 -0.253967 -1.17228 1.92418e+20 0 0 0 0 0 
141349 0 20.33 1.94137e+20 303.983 294.816 299.223 5004.6 -2.06017 2.29119 1.94137e+20 0 0 0 0 0 
206885 0 20.275 1.93612e+20 301.7 302.505 298.346 4999.42 -4.45085 -2.4244 1.93612e+20 0 0 0 0 0 
272421 0 20.6075 1.96787e+20 303.905 300.856 300.789 4999.96 -0.0431775 -1.35443 1.96787e+20 0 0 0 0 0 
84005 0 20.0975 1.91917e+20 299.974 299.45 296.613 5002.98 -1.35885 -0.482388 1.91917e+20 0 0 0 0 0 
149541 0 20.4525 1.95307e+20 303.491 298.965 298.236 4998.51 -1.01367 -0.722446 1.95307e+20 0 0 0 0 0 
215077 0 20.005 1.91034e+20 298.786 302.182 296.197 4996.5 -2.8579 -4.13327 1.91034e+20 0 0 0 0 0 
280613 0 20.2375 1.93254e+20 304.645 299.432 299.153 5001.14 -0.49854 0.888542 1.93254e+20 0 0 0 0 0 
92197 0 20.0075 1.91058e+20 296.147 302.088 295.892 5003.37 6.27689 0.670833 1.91058e+20 0 0 0 0 0 
157733 0 20.4125 1.94925e+20 303.858 300.054 296.51 5001.16 2.91986 -0.420852 1.94925e+20 0 0 0 0 0 
223269 0 19.9775 1.90771e+20 298.862 289.598 295.592 5002.26 -2.9635 2.31735 1.90771e+20 0 0 0 0 0 
288805 0 19.5925 1.87095e+20 298.664 297.555 297.345 5002.06 -1.97864 2.18649 1.87095e+20 0 0 0 0 0 
100389 0 20.0725 1.91678e+20 299.535 296.977 298.709 5002.79 3.22241 2.06386 1.91678e+20 0 0 0 0 0 
165925 0 20.3375 1.94209e+20 301.996 301.135 295.94 5002.3 6.56944 0.326521 1.94209e+20 0 0 0 0 0 
231461 0 20.015 1.91129e+20 298.136 293.512 296.351 5001.38 0.788452 3.77171 1.91129e+20 0 0 0 0 0 
296997 0 19.7625 1.88718e+20 297.717 294.264 295.997 4999.19 -3.75224 -1.30171 1.88718e+20 0 0 0 0 0 
76837 0 20.1125 1.9206e+20 296.42 295.515 299.914 4997.56 -0.310989 2.61089 1.9206e+20 0 0 0 0 0 
142373 0 20.3975 1.94782e+20 297.505 300.827 299.276 5001.46 -0.602899 2.54029 1.94782e+20 0 0 0 0 0 
207909 0 20.0025 1.9101e+20 298.849 301.594 301.383 4996.61 -0.907483 1.639 1.9101e+20 0 0 0 0 0 
273445 0 20.1425 1.92347e+20 300.799 298.738 299.454 4995.5 -2.11791 -3.43396 1.92347e+20 0 0 0 0 0 
85029 0 19.9825 1.90819e+20 296.8 293.979 303.221 4998.28 -2.99169 -2.76861 1.90819e+20 0 0 0 0 0 
150565 0 20.11 1.92036e+20 296.669 298.915 300.347 4997.23 -3.87259 4.27065 1.92036e+20 0 0 0 0 0 
216101 0 20.015 1.91129e+20 297.27 300.255 299.478 4996.1 -0.320838 0.347855 1.91129e+20 0 0 0 0 0 
281637 0 19.99 1.9089e+20 301.37 300.188 298.561 4996.93 -0.952943 -0.404129 1.9089e+20 0 0 0 0 0 
93221 0 19.9575 1.9058e+20 297.916 299.202 296.681 5004.39 2.25999 4.39134 1.9058e+20 0 0 0 0 0 