ITEM: TIMESTEP
19000
ITEM: NUMBER OF CELLS
26430
ITEM: BOX BOUNDS oo ao pp
-2.5 5
0 5
-0.0005 0.0005
ITEM: CELLS id proc f_avg_n f_avg_nrho f_avg_temp_tra f_avg_temp_rot f_avg_temp_vib f_avg_vel[1] f_avg_vel[2] f_avg_vel[3] f_avg_nrho_CO2 f_avg_nrho_O2 f_avg_nrho_C2 f_avg_nrho_CO f_avg_nrho_O f_avg_nrho_C 
74753 0 21.475 2.05071e+20 301.738 300.088 297.617 5002.94 18.5568 3.49376 2.05071e+20 0 0 0 0 0 
140289 0 22.1483 2.11501e+20 302.534 297.907 300.136 4997.3 37.1039 -0.275696 2.11501e+20 0 0 0 0 0 
205825 0 21.005 2.00583e+20 299.942 299.294 299.657 4996.67 0.782687 2.10896 2.00583e+20 0 0 0 0 0 
271361 0 20.9483 2.00042e+20 303.847 300.546 298.612 4995.43 0.634557 0.110505 2.00042e+20 0 0 0 0 0 
82945 0 22.975 2.19395e+20 302.076 298.081 298.544 5000.27 46.791 2.91479 2.19395e+20 0 0 0 0 0 
148481 0 23.0533 2.20143e+20 302.534 302.01 299.892 4998.69 52.5293 0.557177 2.20143e+20 0 0 0 0 0 
214017 0 20.8017 1.98641e+20 300.04 300.806 301.079 4998.61 0.998461 -0.45708 1.98641e+20 0 0 0 0 0 
279553 0 20.9533 2.0009e+20 303.684 301.422 298.828 4997.71 2.43793 3.11773 2.0009e+20 0 0 0 0 0 
91137 0 20.945 2.0001e+20 300.119 302.379 298.784 5002.57 2.11906 2.01511 2.0001e+20 0 0 0 0 0 
156673 0 20.7867 1.98498e+20 302.205 298.693 298.121 5000.19 5.69332 2.94018 1.98498e+20 0 0 0 0 0 
222209 0 21.0033 2.00567e+20 301.736 304.259 300.314 4999.53 -2.72752 -0.796178 2.00567e+20 0 0 0 0 0 
287745 0 20.925 1.99819e+20 300.386 300.155 299.338 4996.61 -2.983 -1.86723 1.99819e+20 0 0 0 0 0 
99329 0 20.8367 1.98976e+20 300.549 304.052 298.298 5000.62 -0.32426 2.57647 1.98976e+20 0 0 0 0 0 
164865 0 20.8067 1.98689e+20 302.515 302.466 297.704 5001.07 1.89017 0.448356 1.98689e+20 0 0 0 0 0 
230401 0 21.0183 2.0071e+20 296.537 304.513 300.871 5000.75 -1.19136 -0.810483 2.0071e+20 0 0 0 0 0 
295937 0 20.7733 1.98371e+20 300.042 303.963 299.895 4997.15 -2.53063 1.13006 1.98371e+20 0 0 0 0 0 
75777 0 23.4083 2.23533e+20 300.146 298.497 298.01 4998.3 53.2236 0.372244 2.23533e+20 0 0 0 0 0 
141313 0 23.5817 2.25188e+20 300.463 303.437 301.847 4997.83 55.0253 0.273128 2.25188e+20 0 0 0 0 0 
206849 0 20.895 1.99533e+20 300.239 300.208 298.482 4997.98 3.52884 0.692916 1.99533e+20 0 0 0 0 0 
272385 0 21.2233 2.02668e+20 303.075 299.262 299.603 4996.26 5.64055 1.22567 2.02668e+20 0 0 0 0 0 
83969 0 23.7 2.26318e+20 299.723 298.818 299.615 4997.67 53.6489 1.72041 2.26318e+20 0 0 0 0 0 
149505 0 23.4383 2.2382e+20 296.798 299.674 299.059 4999.83 51.4652 -1.67568 2.2382e+20 0 0 0 0 0 
215041 0 20.8833 1.99421e+20 304.037 299.941 297.885 4997.52 6.13037 4.35035 1.99421e+20 0 0 0 0 0 
280577 0 21.1983 2.02429e+20 300.909 296.761 300.647 4997.37 8.04768 1.23448 2.02429e+20 0 0 0 0 0 
92161 0 20.7367 1.98021e+20 300.096 299.118 299.075 5003.58 1.23607 2.25491 1.98021e+20 0 0 0 0 0 
157697 0 20.6883 1.97559e+20 301.373 303.035 301.375 5000.55 -0.57325 2.1351 1.97559e+20 0 0 0 0 0 
223233 0 21.0267 2.0079e+20 298.846 303.313 300.406 4998.5 -0.300381 -1.86141 2.0079e+20 0 0 0 0 0 
288769 0 20.975 2.00296e+20 298.694 302.641 300.362 4998.97 -2.36491 0.853662 2.00296e+20 0 0 0 0 0 
100353 0 20.765 1.98291e+20 302.47 299.949 297.164 5003.02 0.125112 -0.999518 1.98291e+20 0 0 0 0 0 
165889 0 20.6817 1.97495e+20 299.773 300.727 298.07 5002.21 1.61185 -1.69612 1.97495e+20 0 0 0 0 0 
231425 0 20.9167 1.99739e+20 300.146 304.264 300.574 4997.49 1.04451 -2.25459 1.99739e+20 0 0 0 0 0 
296961 0 20.9983 2.00519e+20 300.515 303.966 300.814 4998.81 0.410253 -0.844265 2.00519e+20 0 0 0 0 0 
76801 0 20.8867 1.99453e+20 302.256 298.184 302.105 4998.55 -0.0332812 0.354997 1.99453e+20 0 0 0 0 0 
142337 0 20.7917 1.98546e+20 300.498 302.52 299.249 5000.49 1.90239 -1.19416 1.98546e+20 0 0 0 0 0 
207873 0 20.9933 2.00472e+20 298.952 296.472 299.759 4999.57 0.676193 0.456132 2.00472e+20 0 0 0 0 0 
273409 0 21.08 2.01299e+20 300.007 297.345 297.988 5000.76 1.00431 5.37955 2.01299e+20 0 0 0 0 0 
84993 0 20.8083 1.98705e+20 303.326 297.542 297.48 5000.89 1.21726 1.00234 1.98705e+20 0 0 0 0 0 
150529 0 21.0017 2.00551e+20 303.084 299.168 303.306 4999.16 2.63886 -0.327472 2.00551e+20 0 0 0 0 0 
216065 0 20.8133 1.98753e+20 297.418 298.849 298.358 5001.83 -0.198365 2.40834 1.98753e+20 0 0 0 0 0 
281601 0 21.035 2.00869e+20 298.645 298.638 297.816 4998.92 1.74704 1.23059 2.00869e+20 0 0 0 0 0 
93185 0 21.0333 2.00854e+20 298.314 299.402 297.284 4999.13 -0.199063 1.62208 2.00854e+20 0 0 0 0 0 
158721 0 20.825 1.98864e+20 299.161 299.808 298.555 5004 1.50669 0.81674 1.98864e+20 0 0 0 0 0 
224257 0 20.8833 1.99421e+20 298.192 299.823 296.456 5002.16 0.380414 -1.19025 1.99421e+20 0 0 0 0 0 
289793 0 20.8867 1.99453e+20 298.811 298.564 297.949 5004.21 -1.86238 -2.15548 1.99453e+20 0 0 0 0 0 
101377 0 21.0417 2.00933e+20 301.091 298.698 296.606 5001.15 -1.44485 4.37532 2.00933e+20 0 0 0 0 0 
166913 0 20.9017 1.99596e+20 299.77 298.012 297.492 5001.09 2.6134 -2.14052 1.99596e+20 0 0 0 0 0 
232449 0 20.7583 1.98227e+20 299.461 297.818 298.043 5005.03 -1.19506 -0.262515 1.98227e+20 0 0 0 0 0 
297985 0 20.81 1.98721e+20 299.023 301.32 297.705 5001.42 -0.117697 -0.7695 1.98721e+20 0 0 0 0 0 
77825 0 20.7467 1.98116e+20 300.724 300.624 295.793 5000.29 2.46866 -1.34906 1.98116e+20 0 0 0 0 0 
143361 0 20.54 1.96143e+20 300.452 299.496 298.798 5000.85 0.667402 0.623026 1.96143e+20 0 0 0 0 0 
208897 0 20.9983 2.00519e+20 301.645 297.49 296.665 5002.78 -2.55736 3.71428 2.00519e+20 0 0 0 0 0 
274433 0 20.6583 1.97273e+20 298.134 300.841 297.062 5000.02 -2.09675 3.34424 1.97273e+20 0 0 0 0 0 
86017 0 21.0083 2.00615e+20 303.169 299.797 301.92 4997.03 0.508951 1.44167 2.00615e+20 0 0 0 0 0 
151553 0 20.84 1.99007e+20 299.819 299.822 296.281 4998.86 -3.91575 -0.400289 1.99007e+20 0 0 0 0 0 
217089 0 20.8483 1.99087e+20 302.522 296.528 297.514 5000.58 3.25939 1.73712 1.99087e+20 0 0 0 0 0 
282625 0 20.7767 1.98403e+20 299.796 298.709 296.72 5001.4 -0.44068 2.31772 1.98403e+20 0 0 0 0 0 
94209 0 20.9133 1.99708e+20 299.779 299.388 298.087 5004.04 0.814508 2.48514 1.99708e+20 0 0 0 0 0 
159745 0 20.98 2.00344e+20 299.237 299.026 298.324 4999.37 3.78521 -0.18067 2.00344e+20 0 0 0 0 0 
225281 0 20.7483 1.98132e+20 297.965 297.589 298.119 5002.96 -1.47769 -1.6414 1.98132e+20 0 0 0 0 0 
290817 0 20.7767 1.98403e+20 297.7 300.791 296.054 5005.93 -1.70355 1.26335 1.98403e+20 0 0 0 0 0 
102401 0 21.0467 2.00981e+20 296.663 301.363 297.31 5002.38 0.632556 -1.14676 2.00981e+20 0 0 0 0 0 
167937 0 20.8933 1.99517e+20 299.166 302.22 296.274 5002 2.35584 1.50344 1.99517e+20 0 0 0 0 0 
233473 0 20.855 1.99151e+20 296.632 303.123 297.702 5001.68 -3.31417 0.45908 1.99151e+20 0 0 0 0 0 
299009 0 20.755 1.98196e+20 301.183 299.645 297.058 5002.34 -2.88336 -0.1561 1.98196e+20 0 0 0 0 0 
74757 0 20.5933 1.96652e+20 299.667 296.496 296.783 4999.85 -3.04349 1.31865 1.96652e+20 0 0 0 0 0 
140293 0 20.37 1.94519e+20 296.053 290.501 299.635 5003.95 0.588703 0.413778 1.94519e+20 0 0 0 0 0 
205829 0 20.6767 1.97448e+20 298.062 300.701 295.744 5001.77 0.905007 1.52127 1.97448e+20 0 0 0 0 0 
271365 0 20.7467 1.98116e+20 298.102 297.287 300.391 4999.59 2.14926 1.21879 1.98116e+20 0 0 0 0 0 
82949 0 20.465 1.95426e+20 298.3 296.857 297.071 5002.44 -0.371808 -0.509213 1.95426e+20 0 0 0 0 0 
148485 0 20.5367 1.96111e+20 303.359 293.297 297.854 5003.22 2.50604 -0.543017 1.96111e+20 0 0 0 0 0 
214021 0 20.62 1.96906e+20 304.807 298.783 299.772 5001.08 2.80704 0.0573205 1.96906e+20 0 0 0 0 0 
279557 0 20.575 1.96477e+20 299.717 298.284 297.394 5003.42 0.783295 3.18924 1.96477e+20 0 0 0 0 0 
91141 0 21.115 2.01633e+20 301.274 302.059 297.933 4997.11 6.10567 0.354533 2.01633e+20 0 0 0 0 0 
156677 0 20.9783 2.00328e+20 297.289 301.603 298.62 4999.58 7.11654 -1.88491 2.00328e+20 0 0 0 0 0 
222213 0 20.81 1.98721e+20 300.141 298.615 298.806 5002.76 5.10281 0.170566 1.98721e+20 0 0 0 0 0 
287749 0 20.3733 1.94551e+20 299.437 299.647 300.97 5000.61 3.11654 -2.94149 1.94551e+20 0 0 0 0 0 
99333 0 20.94 1.99962e+20 302.44 301.195 298.812 4997.7 5.81053 0.0571251 1.99962e+20 0 0 0 0 0 
164869 0 21.0033 2.00567e+20 299.028 302.691 298.883 4997.53 4.31526 -0.69689 2.00567e+20 0 0 0 0 0 
230405 0 20.79 1.9853e+20 300.467 299.039 299.096 5001.17 3.43743 0.890645 1.9853e+20 0 0 0 0 0 
295941 0 20.6967 1.97639e+20 301.811 299.779 297.816 5001.32 7.3985 -1.64752 1.97639e+20 0 0 0 0 0 
75781 0 20.1983 1.9288e+20 297.222 298.004 298.883 5001.71 0.651921 -0.296133 1.9288e+20 0 0 0 0 0 
141317 0 20.47 1.95474e+20 298.671 296.888 295.711 5005.65 3.02072 -0.793516 1.95474e+20 0 0 0 0 0 
206853 0 20.6617 1.97304e+20 301.451 298.653 301.291 4998.8 1.45126 -0.904068 1.97304e+20 0 0 0 0 0 
272389 0 20.6617 1.97304e+20 301.768 297.306 296.561 5001.03 0.339896 4.11592 1.97304e+20 0 0 0 0 0 
83973 0 20.2167 1.93055e+20 301.527 294.724 299.314 4999.95 0.880266 0.636591 1.93055e+20 0 0 0 0 0 
149509 0 20.3867 1.94678e+20 300.462 298.629 298.099 5004.32 0.134878 -4.35027 1.94678e+20 0 0 0 0 0 
215045 0 20.445 1.95235e+20 300.163 302.069 297.345 5000.52 2.40645 1.3481 1.95235e+20 0 0 0 0 0 
280581 0 20.6783 1.97464e+20 299.541 299.036 299.849 5001.88 0.667308 2.79611 1.97464e+20 0 0 0 0 0 
92165 0 20.8433 1.99039e+20 299.451 301.268 297.799 4998.13 6.85511 -1.08225 1.99039e+20 0 0 0 0 0 
157701 0 20.74 1.98052e+20 299.316 302.701 298.894 4998.8 2.67279 -2.5152 1.98052e+20 0 0 0 0 0 
223237 0 20.535 1.96095e+20 299.929 301.874 300.187 5000.53 3.62105 -4.10816 1.96095e+20 0 0 0 0 0 
288773 0 20.6967 1.97639e+20 301.437 298.864 297.621 5000.99 7.93966 0.457213 1.97639e+20 0 0 0 0 0 
100357 0 20.8617 1.99214e+20 297.311 299.87 298.339 4995.88 3.52167 -3.92384 1.99214e+20 0 0 0 0 0 
165893 0 20.7033 1.97702e+20 300.53 302.731 299.011 4997.36 8.40094 -2.7506 1.97702e+20 0 0 0 0 0 
231429 0 20.4133 1.94933e+20 298.439 303.281 300.587 5001.95 1.2772 -6.30443 1.94933e+20 0 0 0 0 0 
296965 0 20.7217 1.97877e+20 302.361 300.873 297.578 5000.38 6.06579 -0.546401 1.97877e+20 0 0 0 0 0 
76805 0 20.8717 1.9931e+20 299.301 299.027 301.041 4999.82 4.16486 -2.39685 1.9931e+20 0 0 0 0 0 
142341 0 20.6517 1.97209e+20 301.174 303.018 299.046 5002.83 2.55508 2.66965 1.97209e+20 0 0 0 0 0 
207877 0 20.65 1.97193e+20 301.468 302.842 299.173 5002.16 -2.03749 1.40292 1.97193e+20 0 0 0 0 0 
273413 0 20.4383 1.95172e+20 301.01 298.898 297.407 5000.33 0.310332 2.14736 1.95172e+20 0 0 0 0 0 
84997 0 20.54 1.96143e+20 300.725 299.392 299.972 5002.88 0.3037 0.832878 1.96143e+20 0 0 0 0 0 
150533 0 20.7483 1.98132e+20 297.732 301.248 300.023 5000.22 4.87395 1.12907 1.98132e+20 0 0 0 0 0 
216069 0 20.59 1.9662e+20 298.483 302.209 297.863 5001.97 -2.67683 0.553632 1.9662e+20 0 0 0 0 0 
281605 0 20.5533 1.9627e+20 303.184 300.499 297.698 4998.09 1.57232 0.428721 1.9627e+20 0 0 0 0 0 
93189 0 20.74 1.98052e+20 301.398 295.425 298.456 5001.4 -3.16179 0.690982 1.98052e+20 0 0 0 0 0 
158725 0 20.62 1.96906e+20 301.445 299.492 297.277 5002.36 -2.70352 1.47218 1.96906e+20 0 0 0 0 0 
224261 0 20.6967 1.97639e+20 301.847 299.319 296.448 5003.86 0.686794 0.254997 1.97639e+20 0 0 0 0 0 
289797 0 20.845 1.99055e+20 299.96 298.998 298.952 5000.63 0.611295 -2.52903 1.99055e+20 0 0 0 0 0 
101381 0 20.66 1.97288e+20 302.704 291.962 298.314 5003.61 -3.10173 3.23287 1.97288e+20 0 0 0 0 0 
166917 0 20.675 1.97432e+20 302.554 297.113 298.226 5003.31 -2.89562 1.69071 1.97432e+20 0 0 0 0 0 
232453 0 20.5317 1.96063e+20 298.25 300.272 295.545 5001.44 0.487299 -1.06819 1.96063e+20 0 0 0 0 0 
297989 0 20.5933 1.96652e+20 300.538 300.114 298.014 5004.37 0.325788 -3.73856 1.96652e+20 0 0 0 0 0 
77829 0 20.6467 1.97161e+20 301.308 301.167 299.224 5001.64 -1.06268 -0.71964 1.97161e+20 0 0 0 0 0 
143365 0 20.66 1.97288e+20 299.457 297.49 300.175 5004.07 0.551013 1.24123 1.97288e+20 0 0 0 0 0 
208901 0 20.4533 1.95315e+20 300.874 299.863 299.32 5002.97 -1.25996 2.07405 1.95315e+20 0 0 0 0 0 
274437 0 20.53 1.96047e+20 302.506 301.468 298.144 5002.5 1.16439 -0.573464 1.96047e+20 0 0 0 0 0 
86021 0 20.7583 1.98227e+20 300.498 301.651 297.822 4998.95 2.35268 1.24274 1.98227e+20 0 0 0 0 0 
151557 0 20.785 1.98482e+20 302.126 298.186 299.62 5004.31 1.2677 0.776295 1.98482e+20 0 0 0 0 0 
217093 0 20.625 1.96954e+20 301.458 298.947 300.494 5000.93 0.344249 -0.69517 1.96954e+20 0 0 0 0 0 
282629 0 20.5833 1.96556e+20 302.547 303.359 296.843 5003.22 -0.0772743 2.64648 1.96556e+20 0 0 0 0 0 
94213 0 20.715 1.97814e+20 300.526 298.446 297.624 5001.88 -2.22961 2.07843 1.97814e+20 0 0 0 0 0 
159749 0 20.6333 1.97034e+20 300.397 294.367 298.216 5003.46 -2.74016 2.77604 1.97034e+20 0 0 0 0 0 
225285 0 20.6983 1.97655e+20 299.397 301.592 297.433 5001.55 -0.73712 -2.27224 1.97655e+20 0 0 0 0 0 
290821 0 20.3967 1.94774e+20 301.569 300.709 297.936 5003.06 1.50651 -1.42781 1.94774e+20 0 0 0 0 0 
102405 0 20.65 1.97193e+20 301.884 298.826 297.926 5002.08 -1.73667 1.1726 1.97193e+20 0 0 0 0 0 
167941 0 20.4083 1.94885e+20 299.094 296.541 296.648 5001.73 -2.07377 0.077957 1.94885e+20 0 0 0 0 0 
233477 0 20.5517 1.96254e+20 300.202 296.293 296.351 5002.78 -0.659563 -2.55789 1.96254e+20 0 0 0 0 0 
299013 0 20.5917 1.96636e+20 299.079 297.723 296.726 5002.42 -1.98847 -3.99121 1.96636e+20 0 0 0 0 0 
74761 0 21.95 2.09607e+20 3275.79 1016.13 437.667 4703.26 -3.48682 4.03731 2.09607e+20 0 0 0 0 0 
140297 0 39.445 3.76672e+20 14702.6 6823.31 2686.11 2568.93 -7.37302 17.1975 3.76672e+20 0 0 0 0 0 
205833 0 21.01 2.00631e+20 3232.03 999.408 470.49 4708.35 3.53341 -5.59511 2.00631e+20 0 0 0 0 0 
271369 0 39.4817 3.77022e+20 14825.9 6887.75 2778.15 2507 -0.456432 -9.46458 3.77022e+20 0 0 0 0 0 
82953 0 90.155 8.60917e+20 13487.1 9687.01 6823.65 1118.3 -3.35506 12.9975 8.60917e+20 0 0 0 0 0 
148489 0 133.405 1.27392e+21 12060.9 9978.44 8794.25 741.057 11.2439 -0.604124 1.27392e+21 0 0 0 0 0 
214025 0 89.4833 8.54503e+20 13392.8 9531.84 6882.07 1092.19 16.9886 8.24836 8.54503e+20 0 0 0 0 0 
279561 0 132.435 1.26466e+21 12158.5 10048.9 8788.5 717.452 4.55302 -2.69519 1.26466e+21 0 0 0 0 0 
91145 0 21.335 2.03734e+20 3665.99 1116.98 476.449 4654.87 2.51271 -5.37786 2.03734e+20 0 0 0 0 0 
156681 0 39.4383 3.76608e+20 14976.7 6858.16 2791.8 2485.76 6.82361 7.53037 3.76608e+20 0 0 0 0 0 
222217 0 22.08 2.10848e+20 3256.81 977.432 439.056 4701.99 1.41957 -2.8654 2.10848e+20 0 0 0 0 0 
287753 0 40.9333 3.90885e+20 14655.7 6703.61 2777.03 2526.67 28.4449 20.8317 3.90885e+20 0 0 0 0 0 
99337 0 88.9083 8.49012e+20 13453.1 9543.2 6882.42 1085.87 11.0095 1.86224 8.49012e+20 0 0 0 0 0 
164873 0 133.567 1.27547e+21 12184.3 10059.6 8839.06 715.315 10.3077 3.75622 1.27547e+21 0 0 0 0 0 
230409 0 91.2533 8.71405e+20 13442.9 9541.16 6869.86 1108.81 17.5937 4.17324 8.71405e+20 0 0 0 0 0 
295945 0 135.348 1.29248e+21 12159.4 10046.3 8754.42 734.831 14.289 -1.70097 1.29248e+21 0 0 0 0 0 
75785 0 154.998 1.48013e+21 11524.4 10200.5 9433.44 616.525 2.41419 14.869 1.48013e+21 0 0 0 0 0 
141321 0 170.252 1.62578e+21 11356.7 10295.4 9829.26 528.407 12.396 11.2535 1.62578e+21 0 0 0 0 0 
206857 0 155.658 1.48643e+21 11600.3 10264.2 9600.09 589.296 17.0277 8.15823 1.48643e+21 0 0 0 0 0 
272393 0 173.052 1.65252e+21 11344.2 10348.6 9896.55 504.118 18.6311 1.98371 1.65252e+21 0 0 0 0 0 
83977 0 185.977 1.77595e+21 11113.4 10423.1 9897.49 445.552 14.4549 8.38758 1.77595e+21 0 0 0 0 0 
149513 0 201.722 1.9263e+21 10860.8 10554.2 10058.8 373.512 6.33519 3.26761 1.9263e+21 0 0 0 0 0 
215049 0 192.197 1.83534e+21 11128.9 10473.4 10025 420.256 20.9947 -0.0161183 1.83534e+21 0 0 0 0 0 
280585 0 205.138 1.95893e+21 10894.5 10512.5 10124.9 370.029 15.9414 7.74041 1.95893e+21 0 0 0 0 0 
92169 0 158.838 1.51679e+21 11633.4 10290.4 9586.38 572.577 28.682 5.35639 1.51679e+21 0 0 0 0 0 
157705 0 175.792 1.67869e+21 11405 10383.3 9948.77 484.191 38.4454 -10.2194 1.67869e+21 0 0 0 0 0 
223241 0 159.1 1.51929e+21 11597.1 10248 9616.73 589.081 36.3936 -5.41414 1.51929e+21 0 0 0 0 0 
288777 0 176.633 1.68672e+21 11399.5 10339 9933.11 505.102 37.7624 -12.0323 1.68672e+21 0 0 0 0 0 
100361 0 189.537 1.80994e+21 11160.3 10402.6 10004.3 416.134 22.7166 0.466808 1.80994e+21 0 0 0 0 0 
165897 0 203.555 1.94381e+21 10904.3 10586.6 10127.9 359.234 31.6453 15.0854 1.94381e+21 0 0 0 0 0 
231433 0 191.78 1.83136e+21 11103.1 10511.7 10041.5 421.517 41.0762 -0.180461 1.83136e+21 0 0 0 0 0 
296969 0 206.927 1.976e+21 10941.7 10528.4 10167.3 364.264 36.4941 4.22048 1.976e+21 0 0 0 0 0 
76809 0 21.9267 2.09384e+20 3233.75 971.944 426.126 4711.74 4.05903 -5.44086 2.09384e+20 0 0 0 0 0 
142345 0 40.135 3.83261e+20 14589.1 6764.27 2660.54 2563.99 5.53908 1.14529 3.83261e+20 0 0 0 0 0 
207881 0 21.6517 2.06758e+20 3449.94 1045.24 427.644 4691.01 -0.368609 -1.67403 2.06758e+20 0 0 0 0 0 
273417 0 40.4283 3.86062e+20 14680.3 6872.08 2771.83 2515.82 29.4849 -4.33335 3.86062e+20 0 0 0 0 0 
85001 0 91.5683 8.74413e+20 13490.6 9477.14 6916.5 1112.39 21.0124 -10.3344 8.74413e+20 0 0 0 0 0 
150537 0 133.615 1.27593e+21 12256.4 10068.5 8837.7 730.624 27.2726 1.89056 1.27593e+21 0 0 0 0 0 
216073 0 90.97 8.687e+20 13515.7 9617.83 7003.38 1090.34 37.6327 4.17396 8.687e+20 0 0 0 0 0 
281609 0 131.507 1.2558e+21 12209.4 10128.8 8884.08 715.192 49.5598 -6.71648 1.2558e+21 0 0 0 0 0 
93193 0 21.505 2.05358e+20 3281.41 981.903 437.297 4699.55 -0.551423 -7.11517 2.05358e+20 0 0 0 0 0 
158729 0 39.79 3.79967e+20 14739 6691.39 2698.26 2532.11 37.7136 -20.9482 3.79967e+20 0 0 0 0 0 
224265 0 21.3633 2.04005e+20 3349.44 1005.26 427.506 4697.48 -0.0915655 9.17432 2.04005e+20 0 0 0 0 0 
289801 0 39.2533 3.74842e+20 14639.5 6582.68 2611.5 2578.44 38.8698 -9.98228 3.74842e+20 0 0 0 0 0 
101385 0 89.425 8.53946e+20 13596.4 9648.84 6901.61 1097.66 54.7932 -3.18319 8.53946e+20 0 0 0 0 0 
166921 0 130.883 1.24984e+21 12227 10094.6 8890.72 710.237 59.2045 -5.52618 1.24984e+21 0 0 0 0 0 
232457 0 89.8917 8.58402e+20 13564.6 9623.8 6867.44 1096.13 69.6729 -8.46034 8.58402e+20 0 0 0 0 0 
297993 0 131.577 1.25646e+21 12252.7 10011.2 8847.84 721.431 76.3331 2.28352 1.25646e+21 0 0 0 0 0 
77833 0 159.185 1.5201e+21 11718.5 10278.7 9608.68 577.161 48.135 -12.3695 1.5201e+21 0 0 0 0 0 
143369 0 174.898 1.67016e+21 11499.6 10377.2 9974.24 496.261 49.9886 -9.40085 1.67016e+21 0 0 0 0 0 
208905 0 158.808 1.51651e+21 11709.7 10303.4 9632.06 575.136 52.6279 -13.5519 1.51651e+21 0 0 0 0 0 
274441 0 177.227 1.69239e+21 11401.1 10358.8 9943.51 490.339 58.7902 -8.99815 1.69239e+21 0 0 0 0 0 
86025 0 191.963 1.83311e+21 11119 10502.8 10044.6 426.043 47.0232 13.9332 1.83311e+21 0 0 0 0 0 
151561 0 206.96 1.97632e+21 10840.2 10467.9 10168.3 364.641 50.4295 3.72185 1.97632e+21 0 0 0 0 0 
217097 0 195.753 1.86931e+21 11169.2 10544.2 10060.4 412.902 56.5866 -1.8387 1.86931e+21 0 0 0 0 0 
282633 0 207.938 1.98566e+21 10870.9 10585.8 10242.8 356.921 65.6799 1.02407 1.98566e+21 0 0 0 0 0 
94217 0 155.668 1.48652e+21 11667.2 10292.8 9681.44 565.04 62.0163 -2.30889 1.48652e+21 0 0 0 0 0 
159753 0 174.557 1.66689e+21 11396.6 10314 9897.8 473.79 74.6944 -19.2481 1.66689e+21 0 0 0 0 0 
225289 0 157.108 1.50027e+21 11743.4 10292.3 9590.44 575.269 76.6533 0.278812 1.50027e+21 0 0 0 0 0 
290825 0 175.838 1.67913e+21 11392.2 10343.8 9855.14 481.272 84.164 7.39575 1.67913e+21 0 0 0 0 0 
102409 0 191.725 1.83084e+21 11119.1 10514.3 9988.66 399.841 69.797 6.97488 1.83084e+21 0 0 0 0 0 
167945 0 206.575 1.97265e+21 10861 10676.5 10262.5 334.763 75.9544 -4.27755 1.97265e+21 0 0 0 0 0 
233481 0 197.372 1.88476e+21 11015.6 10463.7 9964.49 389.107 86.2719 -0.267306 1.88476e+21 0 0 0 0 0 
299017 0 209.99 2.00526e+21 10845.8 10512.2 10268.5 333.398 88.986 -4.48456 2.00526e+21 0 0 0 0 0 
74785 0 20.91 1.99676e+20 298.248 299.101 299.119 5000.49 3.67639 -1.19543 1.99676e+20 0 0 0 0 0 
140321 0 20.7533 1.9818e+20 300.899 300.485 297.813 4999.27 -3.42706 0.444676 1.9818e+20 0 0 0 0 0 
205857 0 20.905 1.99628e+20 298.489 301.73 299.522 4998.26 0.0985635 1.97996 1.99628e+20 0 0 0 0 0 
271393 0 20.8033 1.98657e+20 300.031 297.284 297.891 5002.83 -2.44428 1.16831 1.98657e+20 0 0 0 0 0 
82977 0 20.8217 1.98832e+20 299.786 297.419 299.731 5001.38 -0.447236 -0.353113 1.98832e+20 0 0 0 0 0 
148513 0 20.73 1.97957e+20 301.904 297.797 298.119 4998.67 2.65285 -1.34744 1.97957e+20 0 0 0 0 0 
214049 0 20.9883 2.00424e+20 301.45 301.691 296.945 5001.17 0.612532 3.42789 2.00424e+20 0 0 0 0 0 
279585 0 20.9167 1.99739e+20 300.52 298.522 298.451 4997.58 -2.0217 -0.177239 1.99739e+20 0 0 0 0 0 
91169 0 20.9283 1.99851e+20 301.833 295.013 297.847 5002.49 -3.58877 -0.319377 1.99851e+20 0 0 0 0 0 
156705 0 20.6483 1.97177e+20 301.157 300.289 297.875 5001.86 -2.57951 0.407262 1.97177e+20 0 0 0 0 0 
222241 0 20.585 1.96572e+20 304.66 299.952 297.2 5001.23 -1.94663 -1.99495 1.96572e+20 0 0 0 0 0 
287777 0 20.6917 1.97591e+20 304.485 299.182 297.669 5000.65 -0.573561 -1.76547 1.97591e+20 0 0 0 0 0 
99361 0 20.9467 2.00026e+20 302.088 301.712 298.166 5001.64 -5.49575 -2.64635 2.00026e+20 0 0 0 0 0 
164897 0 20.715 1.97814e+20 301.771 297.829 297.042 5000.46 -5.09611 3.79178 1.97814e+20 0 0 0 0 0 
230433 0 20.7533 1.9818e+20 301.773 294.695 295.391 4999.99 -0.0910379 0.71132 1.9818e+20 0 0 0 0 0 
295969 0 20.4783 1.95554e+20 300.635 299.408 297.676 5000.27 -0.6796 -1.79385 1.95554e+20 0 0 0 0 0 
75809 0 20.8233 1.98848e+20 301.16 297.156 297.519 5002.62 -4.16905 -0.182269 1.98848e+20 0 0 0 0 0 
141345 0 20.7367 1.98021e+20 300.086 296.427 299.109 4997.11 2.359 -2.19366 1.98021e+20 0 0 0 0 0 
206881 0 20.875 1.99342e+20 303.47 298.712 297.053 5004.25 1.51709 1.73542 1.99342e+20 0 0 0 0 0 
272417 0 20.9433 1.99994e+20 301.347 300.222 299.101 4997.34 -0.349002 0.756235 1.99994e+20 0 0 0 0 0 
84001 0 20.7633 1.98275e+20 298.45 296.949 298.152 5001.66 0.676009 -0.0191718 1.98275e+20 0 0 0 0 0 
149537 0 20.7433 1.98084e+20 300.266 294.71 299.24 5000.42 -2.56339 -2.31449 1.98084e+20 0 0 0 0 0 
215073 0 20.7583 1.98227e+20 301.306 298.751 298.059 5002.74 0.977955 1.92376 1.98227e+20 0 0 0 0 0 
280609 0 20.6667 1.97352e+20 299.491 301.285 297.614 5000.41 2.06116 2.33066 1.97352e+20 0 0 0 0 0 
92193 0 20.7317 1.97973e+20 301.031 298.952 298.677 5002.8 -2.32689 -0.76693 1.97973e+20 0 0 0 0 0 
157729 0 21.1183 2.01665e+20 301.945 297.209 296.848 5003.19 -5.03527 -2.86683 2.01665e+20 0 0 0 0 0 
223265 0 20.5983 1.967e+20 303.17 296.522 296.684 5000.37 -0.135331 1.08121 1.967e+20 0 0 0 0 0 
288801 0 20.5667 1.96397e+20 300.754 298.049 296.099 5000.14 -0.210442 -1.933 1.96397e+20 0 0 0 0 0 
100385 0 20.435 1.9514e+20 304.391 296.907 298.128 5001.52 -5.81817 3.43787 1.9514e+20 0 0 0 0 0 
165921 0 21.1133 2.01617e+20 303.058 297.673 298.005 5004.33 -3.32132 -0.102979 2.01617e+20 0 0 0 0 0 
231457 0 20.5867 1.96588e+20 302.065 298.082 298.237 4999.14 -0.680707 -0.547983 1.96588e+20 0 0 0 0 0 
296993 0 20.49 1.95665e+20 301.25 295.438 294.902 5002.15 -1.2053 0.154383 1.95665e+20 0 0 0 0 0 
76833 0 20.7383 1.98036e+20 295.432 300.295 299.613 5000.61 -2.21461 -1.77817 1.98036e+20 0 0 0 0 0 
142369 0 20.8867 1.99453e+20 297.358 298.742 300.517 5000.77 -0.573177 -2.32228 1.99453e+20 0 0 0 0 0 
207905 0 20.9833 2.00376e+20 303.029 301.973 296.393 5001.38 -2.08604 4.26443 2.00376e+20 0 0 0 0 0 
273441 0 20.7683 1.98323e+20 297.991 302.772 298.389 5003.85 -2.60452 3.36009 1.98323e+20 0 0 0 0 0 
85025 0 20.71 1.97766e+20 299.64 297.21 297.92 4999.88 0.704497 -0.71685 1.97766e+20 0 0 0 0 0 
150561 0 20.785 1.98482e+20 299.048 299.525 299.76 5000.85 1.21802 -1.92063 1.98482e+20 0 0 0 0 0 
216097 0 20.6333 1.97034e+20 302.08 302.771 295.228 5003 -2.74363 2.70985 1.97034e+20 0 0 0 0 0 
281633 0 20.99 2.0044e+20 300.049 299.821 296.994 5000.55 -1.00799 4.06588 2.0044e+20 0 0 0 0 0 
93217 0 20.8083 1.98705e+20 300.803 297.339 297.318 4999.51 2.04345 3.09669 1.98705e+20 0 0 0 0 0 
158753 0 20.765 1.98291e+20 301.977 300.171 297.922 5004.11 -0.0734308 1.47136 1.98291e+20 0 0 0 0 0 
224289 0 20.705 1.97718e+20 297.955 302.422 298.382 5002.83 -0.512083 0.422384 1.97718e+20 0 0 0 0 0 
289825 0 20.74 1.98052e+20 296.068 302.413 298.217 5003.6 2.61273 4.88419 1.98052e+20 0 0 0 0 0 
101409 0 20.7833 1.98466e+20 298.688 295.334 299.108 5001.22 0.410021 3.38716 1.98466e+20 0 0 0 0 0 
166945 0 20.755 1.98196e+20 300.633 302.089 296.727 5003.52 -0.383363 0.142642 1.98196e+20 0 0 0 0 0 
232481 0 20.4617 1.95395e+20 298.719 299.317 297.902 5002.16 -1.28813 1.08503 1.95395e+20 0 0 0 0 0 
298017 0 20.83 1.98912e+20 300.092 304.72 299.823 5003.08 -3.07777 3.1865 1.98912e+20 0 0 0 0 0 
77857 0 20.9367 1.9993e+20 299.019 301.643 301.276 5000.21 0.863491 -3.2043 1.9993e+20 0 0 0 0 0 
143393 0 20.935 1.99915e+20 300.353 300.098 297.061 5001.16 0.0113719 1.5381 1.99915e+20 0 0 0 0 0 
208929 0 20.4983 1.95745e+20 300.504 301.133 299.277 5000.81 -2.53666 4.11377 1.95745e+20 0 0 0 0 0 
274465 0 20.5433 1.96174e+20 301.213 299.83 295.948 5002.27 1.05387 0.269242 1.96174e+20 0 0 0 0 0 
86049 0 20.7767 1.98403e+20 297.04 298.474 300.853 5000.95 -0.903166 -4.38429 1.98403e+20 0 0 0 0 0 
151585 0 20.9217 1.99787e+20 300.531 302.407 298.561 5001.05 1.68534 0.490099 1.99787e+20 0 0 0 0 0 
217121 0 20.7167 1.9783e+20 299.681 297.818 296.562 5000.78 -2.63031 3.98772 1.9783e+20 0 0 0 0 0 
282657 0 20.2917 1.93771e+20 298.562 302.516 297.335 5001 -2.26118 1.74665 1.93771e+20 0 0 0 0 0 
94241 0 20.7267 1.97925e+20 300.713 294.048 298.194 5004.3 0.0016178 4.33552 1.97925e+20 0 0 0 0 0 
159777 0 20.7217 1.97877e+20 298.97 300.439 298.357 5002.19 0.316397 2.87655 1.97877e+20 0 0 0 0 0 
225313 0 20.645 1.97145e+20 299.055 298.545 297.018 5003.01 -0.115111 3.96937 1.97145e+20 0 0 0 0 0 
290849 0 20.745 1.981e+20 299.479 301.981 298.469 5003.72 0.100227 -0.566464 1.981e+20 0 0 0 0 0 
102433 0 20.8667 1.99262e+20 297.92 300.569 299.725 5000.57 1.98694 0.205842 1.99262e+20 0 0 0 0 0 
167969 0 20.935 1.99915e+20 297.136 299.54 299.918 5004.05 -2.25292 4.14163 1.99915e+20 0 0 0 0 0 
233505 0 20.8467 1.99071e+20 301.243 304.631 298.676 5001.73 -0.677625 3.42737 1.99071e+20 0 0 0 0 0 
299041 0 20.5333 1.96079e+20 302.705 297.419 298.477 5001.93 -1.71898 1.09976 1.96079e+20 0 0 0 0 0 
74789 0 20.72 1.97861e+20 298.169 297.577 298.18 5003.38 -2.27056 -0.36631 1.97861e+20 0 0 0 0 0 
140325 0 20.3483 1.94312e+20 297.493 302.557 299.728 5007.69 -2.52083 -0.733865 1.94312e+20 0 0 0 0 0 
205861 0 20.8183 1.988e+20 304.371 299.428 299.865 5000.76 -0.838494 2.02117 1.988e+20 0 0 0 0 0 
271397 0 20.7583 1.98227e+20 302.721 300.359 298.241 4996.94 -0.0120673 1.73355 1.98227e+20 0 0 0 0 0 
82981 0 20.545 1.9619e+20 296.255 300.551 299.887 5003.71 -1.47236 -0.0218158 1.9619e+20 0 0 0 0 0 
148517 0 20.36 1.94424e+20 299.132 301.548 299.14 5005.15 -2.98878 2.21291 1.94424e+20 0 0 0 0 0 
214053 0 20.8117 1.98737e+20 300.896 299.093 299.376 5002.84 -1.73526 -1.20801 1.98737e+20 0 0 0 0 0 
279589 0 20.59 1.9662e+20 303.42 298.34 298.007 4998.01 1.71891 2.28039 1.9662e+20 0 0 0 0 0 
91173 0 20.2183 1.93071e+20 300.996 298.175 297.657 4998.31 2.82652 1.02361 1.93071e+20 0 0 0 0 0 
156709 0 20.3333 1.94169e+20 302.196 296.122 297.782 5002.89 3.34084 0.340855 1.94169e+20 0 0 0 0 0 
222245 0 20.2967 1.93819e+20 293.756 299.537 297.543 5002.23 -0.713811 3.83639 1.93819e+20 0 0 0 0 0 
287781 0 20.2617 1.93485e+20 297.742 296.187 298.04 5001.84 -2.23105 2.5645 1.93485e+20 0 0 0 0 0 
99365 0 20.39 1.9471e+20 300.908 300.403 297.595 4997.4 -0.347614 -2.24124 1.9471e+20 0 0 0 0 0 
164901 0 20.21 1.92991e+20 305.174 298.037 298.052 5001.23 3.06879 -0.204745 1.92991e+20 0 0 0 0 0 
230437 0 20.1767 1.92673e+20 297.621 294.781 296.944 5003.03 -2.12912 0.982749 1.92673e+20 0 0 0 0 0 
295973 0 20.3233 1.94074e+20 296.408 299.124 298.008 5003.15 1.31239 3.39219 1.94074e+20 0 0 0 0 0 
75813 0 20.5217 1.95967e+20 297.805 298.543 298.509 5003.55 -0.318569 -0.310503 1.95967e+20 0 0 0 0 0 
141349 0 20.51 1.95856e+20 301.551 299.434 298.229 5005.93 -1.74961 1.41177 1.95856e+20 0 0 0 0 0 
206885 0 20.6333 1.97034e+20 302.573 300.965 299.281 5000.28 -3.94401 -1.27505 1.97034e+20 0 0 0 0 0 
272421 0 20.8767 1.99357e+20 301.241 298.86 300.805 4999.87 -1.67731 -0.561784 1.99357e+20 0 0 0 0 0 
84005 0 20.3017 1.93867e+20 298.826 300.152 298.082 5004.57 0.371011 1.30002 1.93867e+20 0 0 0 0 0 
149541 0 20.845 1.99055e+20 300.267 301.138 297.652 5002.07 -1.61854 -1.25592 1.99055e+20 0 0 0 0 0 
215077 0 20.235 1.9323e+20 301.952 302.989 296.972 4998.63 -3.19402 -3.20413 1.9323e+20 0 0 0 0 0 
280613 0 20.5033 1.95792e+20 302.53 299.188 299.256 5000.78 -1.10073 1.30984 1.95792e+20 0 0 0 0 0 
92197 0 20.295 1.93803e+20 297.808 300.689 296.655 5003.54 5.93142 0.859283 1.93803e+20 0 0 0 0 0 
157733 0 20.425 1.95044e+20 303.725 300.051 297.238 4999.98 -0.320637 -1.00855 1.95044e+20 0 0 0 0 0 
223269 0 20.3483 1.94312e+20 299.898 291.594 296.142 5004.5 -2.47087 3.49922 1.94312e+20 0 0 0 0 0 
288805 0 20.1017 1.91957e+20 296.843 296.911 297.779 5003.72 -0.95148 3.40853 1.91957e+20 0 0 0 0 0 
100389 0 20.3633 1.94456e+20 299.114 298.808 298.471 4999.92 4.76246 2.08005 1.94456e+20 0 0 0 0 0 
165925 0 20.475 1.95522e+20 302.71 300.041 296.972 5000.85 4.97991 0.658129 1.95522e+20 0 0 0 0 0 
231461 0 20.4483 1.95267e+20 298.972 293.165 297.308 5002.51 2.36793 2.78951 1.95267e+20 0 0 0 0 0 
296997 0 20.0883 1.91829e+20 297.786 294.453 296.75 5003.08 -5.00829 -0.208231 1.91829e+20 0 0 0 0 0 
76837 0 20.4017 1.94822e+20 299.155 298.168 298.962 4999.27 -0.971557 2.63477 1.94822e+20 0 0 0 0 0 
142373 0 20.5067 1.95824e+20 298.043 297.951 298.377 5002.97 -2.06079 0.925395 1.95824e+20 0 0 0 0 0 
207909 0 20.56 1.96334e+20 299.951 302.132 299.319 5000.74 -0.460481 0.0104613 1.96334e+20 0 0 0 0 0 
273445 0 20.5483 1.96222e+20 300.779 301.41 297.839 4996.67 -1.84374 -2.2034 1.96222e+20 0 0 0 0 0 
85029 0 20.205 1.92944e+20 300.429 296.021 302.131 4999.52 -1.38182 0.789126 1.92944e+20 0 0 0 0 0 
150565 0 20.36 1.94424e+20 296.717 299.812 298.379 4999.1 -2.56667 3.24538 1.94424e+20 0 0 0 0 0 
216101 0 20.4583 1.95363e+20 298.973 300.489 300.518 4998.15 -0.324863 -0.975139 1.95363e+20 0 0 0 0 0 
281637 0 20.4933 1.95697e+20 301.048 299.937 297.738 4998.76 0.096621 -0.458127 1.95697e+20 0 0 0 0 0 
93221 0 20.3267 1.94105e+20 301.223 300.83 297.18 5004.14 2.11344 3.989 1.94105e+20 0 0 0 0 0 