ITEM: TIMESTEP
15000
ITEM: NUMBER OF CELLS
26430
ITEM: BOX BOUNDS oo ao pp
-2.5 5
0 5
-0.0005 0.0005
ITEM: CELLS id proc f_avg_n f_avg_nrho f_avg_temp_tra f_avg_temp_rot f_avg_temp_vib f_avg_vel[1] f_avg_vel[2] f_avg_vel[3] f_avg_nrho_CO2 f_avg_nrho_O2 f_avg_nrho_C2 f_avg_nrho_CO f_avg_nrho_O f_avg_nrho_C 
74753 0 21.61 2.0636e+20 300.798 295.719 299.648 5001.34 18.7968 4.28299 2.0636e+20 0 0 0 0 0 
140289 0 22.34 2.13331e+20 304.433 301.308 302.512 4999.82 31.98 -2.6886 2.13331e+20 0 0 0 0 0 
205825 0 20.905 1.99628e+20 298.16 303.056 300.533 4996.84 -0.735323 3.57506 1.99628e+20 0 0 0 0 0 
271361 0 20.87 1.99294e+20 303.283 308.553 296.333 4995.66 2.72978 2.42568 1.99294e+20 0 0 0 0 0 
82945 0 22.955 2.19204e+20 306.238 301.042 301.98 4997.19 41.4124 -0.20914 2.19204e+20 0 0 0 0 0 
148481 0 23.28 2.22308e+20 308.125 300.627 302.247 5000.51 43.8111 3.01288 2.22308e+20 0 0 0 0 0 
214017 0 20.615 1.96859e+20 298.052 308.049 301.923 4995.2 0.744469 0.15662 1.96859e+20 0 0 0 0 0 
279553 0 21.03 2.00822e+20 302.156 305.711 297.497 4998.14 5.78586 3.6155 2.00822e+20 0 0 0 0 0 
91137 0 21.05 2.01013e+20 294.439 304.274 296.907 5003.54 2.8698 -1.1731 2.01013e+20 0 0 0 0 0 
156673 0 20.685 1.97527e+20 297.372 294.672 295.173 5000.78 8.50717 -0.553002 1.97527e+20 0 0 0 0 0 
222209 0 20.895 1.99533e+20 304.58 305.629 298.288 5003.31 -5.89471 -0.0802428 1.99533e+20 0 0 0 0 0 
287745 0 21.08 2.01299e+20 305.646 301.074 296.73 5004.68 -3.97257 -6.08475 2.01299e+20 0 0 0 0 0 
99329 0 20.825 1.98864e+20 296.685 304.238 297.481 5003.95 1.07673 -2.40381 1.98864e+20 0 0 0 0 0 
164865 0 20.82 1.98816e+20 298.782 300.164 297.36 5002.91 2.0486 0.740546 1.98816e+20 0 0 0 0 0 
230401 0 21.075 2.01251e+20 301.884 303.305 298.583 5004.98 -7.08887 0.0352922 2.01251e+20 0 0 0 0 0 
295937 0 20.585 1.96572e+20 307.393 303.768 298.399 4998.86 -5.8471 -0.940532 1.96572e+20 0 0 0 0 0 
75777 0 23.55 2.24886e+20 301.903 302.95 299.57 4998.71 47.5814 -2.53196 2.24886e+20 0 0 0 0 0 
141313 0 23.58 2.25172e+20 308.477 301.393 304.572 4996.05 51.8164 4.04542 2.25172e+20 0 0 0 0 0 
206849 0 20.685 1.97527e+20 302.146 306.617 297.62 4998.63 2.66923 0.496986 1.97527e+20 0 0 0 0 0 
272385 0 21.205 2.02493e+20 300.055 304.278 299.115 4993.7 10.5081 4.16708 2.02493e+20 0 0 0 0 0 
83969 0 23.72 2.26509e+20 300.852 298.806 300.164 5001.15 54.7942 -2.72215 2.26509e+20 0 0 0 0 0 
149505 0 23.02 2.19825e+20 304.112 298.179 301.652 5000.42 51.6473 -3.81186 2.19825e+20 0 0 0 0 0 
215041 0 20.87 1.99294e+20 301.767 308.482 298.672 4999.38 8.00922 5.96345 1.99294e+20 0 0 0 0 0 
280577 0 20.65 1.97193e+20 298.555 302.647 302.683 4995.46 13.1178 3.60969 1.97193e+20 0 0 0 0 0 
92161 0 20.675 1.97432e+20 293.067 302.816 295.359 5009.95 0.674441 1.5597 1.97432e+20 0 0 0 0 0 
157697 0 20.915 1.99724e+20 299.262 300.97 299.313 5003.02 -2.93055 0.594465 1.99724e+20 0 0 0 0 0 
223233 0 21.155 2.02015e+20 300.36 302.589 298.376 5003.32 -4.82641 -6.33898 2.02015e+20 0 0 0 0 0 
288769 0 20.445 1.95235e+20 305.63 300.379 299.929 5001.75 -4.36313 0.945873 1.95235e+20 0 0 0 0 0 
100353 0 21.005 2.00583e+20 304.221 299.335 296.596 5007.04 0.720009 -0.634335 2.00583e+20 0 0 0 0 0 
165889 0 20.525 1.95999e+20 296.503 298.467 297.757 5004.68 -0.906381 -4.01687 1.95999e+20 0 0 0 0 0 
231425 0 20.925 1.99819e+20 301.455 297.628 301.244 5000.61 -1.84154 -7.10502 1.99819e+20 0 0 0 0 0 
296961 0 20.7 1.9767e+20 305.335 300.165 299.646 5005 -4.94024 -4.83065 1.9767e+20 0 0 0 0 0 
76801 0 20.9 1.9958e+20 300.797 292.904 305.357 4997.62 -0.832449 -0.916809 1.9958e+20 0 0 0 0 0 
142337 0 20.895 1.99533e+20 301.169 290.335 301.987 5000.43 -2.23697 -0.725148 1.99533e+20 0 0 0 0 0 
207873 0 20.975 2.00296e+20 295.765 296.64 299.24 4998.28 -4.91322 -2.50956 2.00296e+20 0 0 0 0 0 
273409 0 21.125 2.01729e+20 296.568 300.521 300.513 5001.89 -1.27652 5.08304 2.01729e+20 0 0 0 0 0 
84993 0 20.48 1.9557e+20 303.204 290.114 299.499 4996.9 -4.18707 -0.674091 1.9557e+20 0 0 0 0 0 
150529 0 20.88 1.99389e+20 298.752 290.554 305.352 5000.37 2.72794 -2.50506 1.99389e+20 0 0 0 0 0 
216065 0 20.59 1.9662e+20 294.094 298.854 299.45 5003.14 -5.00085 -0.261183 1.9662e+20 0 0 0 0 0 
281601 0 21.075 2.01251e+20 296.868 298.714 300.135 5001.14 1.20073 0.959918 2.01251e+20 0 0 0 0 0 
93185 0 21.02 2.00726e+20 299.733 294.919 297.221 4995.72 -1.24137 0.577824 2.00726e+20 0 0 0 0 0 
158721 0 20.905 1.99628e+20 295.741 298.493 300.803 4999.83 3.55085 -0.507657 1.99628e+20 0 0 0 0 0 
224257 0 20.83 1.98912e+20 300.128 300.585 297.993 5000.34 2.58539 -1.65895 1.98912e+20 0 0 0 0 0 
289793 0 21.015 2.00678e+20 296.948 296.746 299.784 5001.58 -2.48252 -3.29952 2.00678e+20 0 0 0 0 0 
101377 0 21.105 2.01538e+20 305.229 291.568 297.996 4999.69 -1.73672 4.6474 2.01538e+20 0 0 0 0 0 
166913 0 20.75 1.98148e+20 299.565 296.056 297.358 4996.9 3.77023 -3.72949 1.98148e+20 0 0 0 0 0 
232449 0 20.64 1.97097e+20 299.587 296.783 297.017 5006.36 1.35708 0.125145 1.97097e+20 0 0 0 0 0 
297985 0 20.815 1.98769e+20 300.044 304.6 301.664 5001.56 -4.08712 2.24187 1.98769e+20 0 0 0 0 0 
77825 0 20.53 1.96047e+20 301.268 295.477 296.704 4999.18 -3.93152 0.0870149 1.96047e+20 0 0 0 0 0 
143361 0 20.53 1.96047e+20 300.241 292.017 299.209 4998.62 0.780681 -2.28016 1.96047e+20 0 0 0 0 0 
208897 0 20.95 2.00058e+20 297.69 303.493 299.533 5004.25 -7.1626 1.2941 2.00058e+20 0 0 0 0 0 
274433 0 20.47 1.95474e+20 296.066 298.494 298.748 5000.73 1.27246 2.42257 1.95474e+20 0 0 0 0 0 
86017 0 20.745 1.981e+20 301.108 297.381 302.602 4996.98 -3.18774 -1.71057 1.981e+20 0 0 0 0 0 
151553 0 20.815 1.98769e+20 296.979 299.561 295.66 4997.82 -6.96482 1.31035 1.98769e+20 0 0 0 0 0 
217089 0 20.96 2.00153e+20 304.831 294.068 299.198 4999.99 2.55408 -0.186277 2.00153e+20 0 0 0 0 0 
282625 0 20.25 1.93373e+20 297.161 298.33 297.681 5000.39 1.15371 2.51086 1.93373e+20 0 0 0 0 0 
94209 0 21.045 2.00965e+20 298.018 298.038 299.293 5001.99 0.53564 5.76729 2.00965e+20 0 0 0 0 0 
159745 0 21.07 2.01204e+20 301.196 300.876 299.728 4996.74 -0.143608 0.705602 2.01204e+20 0 0 0 0 0 
225281 0 20.71 1.97766e+20 293.745 295.59 298.674 5002.6 -1.05193 -4.23206 1.97766e+20 0 0 0 0 0 
290817 0 20.495 1.95713e+20 300.388 298.641 293.314 5005.26 -4.18576 3.5971 1.95713e+20 0 0 0 0 0 
102401 0 21.005 2.00583e+20 296.819 306.561 296.805 4999.94 -3.70242 -1.5556 2.00583e+20 0 0 0 0 0 
167937 0 20.765 1.98291e+20 293.778 306.793 300.255 4995.79 -2.99433 2.9461 1.98291e+20 0 0 0 0 0 
233473 0 20.765 1.98291e+20 292.212 304.799 301.202 4997.84 -1.41796 3.59292 1.98291e+20 0 0 0 0 0 
299009 0 20.58 1.96525e+20 300.317 297.107 297.137 5003.84 -3.21566 -0.901731 1.96525e+20 0 0 0 0 0 
74757 0 19.67 1.87835e+20 298.978 302.161 299.485 5002.04 -0.566462 3.11502 1.87835e+20 0 0 0 0 0 
140293 0 19.385 1.85113e+20 294.82 293.213 298.337 5002.31 4.5044 1.92041 1.85113e+20 0 0 0 0 0 
205829 0 20.3 1.93851e+20 300.341 305.357 298.593 5006.34 -2.37508 -0.865892 1.93851e+20 0 0 0 0 0 
271365 0 20.74 1.98052e+20 300.365 298.342 301.623 5007.72 0.930509 4.4177 1.98052e+20 0 0 0 0 0 
82949 0 19.955 1.90556e+20 301.238 304.254 296.282 5001.36 -5.67552 4.04722 1.90556e+20 0 0 0 0 0 
148485 0 19.6 1.87166e+20 306.009 296.671 298.205 5002.76 -0.579186 3.79974 1.87166e+20 0 0 0 0 0 
214021 0 20.42 1.94997e+20 309.622 298.148 301.158 5005.06 -0.0151699 -2.08414 1.94997e+20 0 0 0 0 0 
279557 0 20.34 1.94233e+20 306.846 295.847 298.256 5011.21 -2.58166 3.25718 1.94233e+20 0 0 0 0 0 
91141 0 20.705 1.97718e+20 305.065 302.337 298.993 4998.32 -2.39495 -1.13792 1.97718e+20 0 0 0 0 0 
156677 0 20.53 1.96047e+20 297.976 295.822 299.355 4997.21 4.22199 -5.44718 1.96047e+20 0 0 0 0 0 
222213 0 20.3 1.93851e+20 302.461 295.539 302.734 4999.28 5.52452 4.58889 1.93851e+20 0 0 0 0 0 
287749 0 19.565 1.86832e+20 302.221 302.224 298.899 5001.82 5.53062 -2.51201 1.86832e+20 0 0 0 0 0 
99333 0 20.09 1.91845e+20 300.564 297.933 305.413 4994.81 -0.507731 -4.5912 1.91845e+20 0 0 0 0 0 
164869 0 20.465 1.95426e+20 297.444 300.658 300.037 4992.1 5.67932 -6.50367 1.95426e+20 0 0 0 0 0 
230405 0 20.12 1.92132e+20 299.409 295.292 299.117 5000.46 4.73839 3.90787 1.92132e+20 0 0 0 0 0 
295941 0 20.19 1.928e+20 305.017 305.124 297.95 5002.57 8.86675 -1.0415 1.928e+20 0 0 0 0 0 
75781 0 19.275 1.84063e+20 298.846 306.034 298.009 5001.76 -2.81506 3.90889 1.84063e+20 0 0 0 0 0 
141317 0 19.985 1.90843e+20 306.762 302.234 298.988 5003.14 -6.43239 0.748917 1.90843e+20 0 0 0 0 0 
206853 0 20.71 1.97766e+20 301.786 299.624 302.057 5001.5 0.0608081 -0.990793 1.97766e+20 0 0 0 0 0 
272389 0 20.56 1.96334e+20 308.516 296.975 300.548 5007.97 -6.39908 7.16213 1.96334e+20 0 0 0 0 0 
83973 0 19.405 1.85304e+20 308.934 298.954 299.724 4999.6 -4.61645 3.79221 1.85304e+20 0 0 0 0 0 
149509 0 19.955 1.90556e+20 305.857 304.248 298.918 4999.05 -5.83647 0.268172 1.90556e+20 0 0 0 0 0 
215045 0 20.14 1.92323e+20 301.536 299.15 296.984 5005.97 -2.21681 -0.194192 1.92323e+20 0 0 0 0 0 
280581 0 20.335 1.94185e+20 298.036 300.838 301.399 5004.42 -1.16507 3.84733 1.94185e+20 0 0 0 0 0 
92165 0 20.215 1.93039e+20 298.097 294.144 302.44 5000.78 5.11754 -7.16194 1.93039e+20 0 0 0 0 0 
157701 0 19.97 1.90699e+20 292.944 303.332 305.251 4995.27 4.77222 -8.20398 1.90699e+20 0 0 0 0 0 
223237 0 19.65 1.87644e+20 301.221 297.675 299.714 4998.94 4.37596 -2.78627 1.87644e+20 0 0 0 0 0 
288773 0 19.755 1.88646e+20 300.732 299.489 297.089 5003.28 8.71139 2.55119 1.88646e+20 0 0 0 0 0 
100357 0 20.365 1.94471e+20 300.059 294.863 300.187 4994.46 3.84849 -4.94141 1.94471e+20 0 0 0 0 0 
165893 0 20.005 1.91034e+20 298.174 304.994 305.484 4999.28 14.546 -5.09623 1.91034e+20 0 0 0 0 0 
231429 0 19.89 1.89936e+20 299.907 304.823 300.001 4999.23 4.54057 -8.45428 1.89936e+20 0 0 0 0 0 
296965 0 19.695 1.88073e+20 299.283 297.232 297.281 5001.52 5.99892 -1.20432 1.88073e+20 0 0 0 0 0 
76805 0 19.695 1.88073e+20 296.772 295.462 297.913 5004.26 5.79825 -3.25642 1.88073e+20 0 0 0 0 0 
142341 0 19.99 1.9089e+20 297.548 299.017 301.302 5007.5 -1.94931 -2.81482 1.9089e+20 0 0 0 0 0 
207877 0 20.155 1.92466e+20 298.506 303.297 301.291 4997.54 -1.26756 3.08206 1.92466e+20 0 0 0 0 0 
273413 0 19.8 1.89076e+20 299.984 297.91 297.183 5002.27 2.64359 1.197 1.89076e+20 0 0 0 0 0 
84997 0 19.75 1.88599e+20 299.82 303.158 300.853 5005.8 -2.24461 -1.29952 1.88599e+20 0 0 0 0 0 
150533 0 19.925 1.9027e+20 297.43 300.995 301.629 5003.68 1.20713 -1.46619 1.9027e+20 0 0 0 0 0 
216069 0 19.8 1.89076e+20 296.152 301.668 297.814 5001 -2.17272 5.25584 1.89076e+20 0 0 0 0 0 
281605 0 19.97 1.90699e+20 302.564 299.753 300.145 4996.52 0.941784 1.02628 1.90699e+20 0 0 0 0 0 
93189 0 20.015 1.91129e+20 294.198 295.232 298.859 4999.02 -4.06136 5.92012 1.91129e+20 0 0 0 0 0 
158725 0 19.795 1.89028e+20 298.188 291.615 294.769 4999.49 -6.55349 4.89819 1.89028e+20 0 0 0 0 0 
224261 0 19.805 1.89124e+20 299.942 299.592 298.725 5005.94 1.9613 2.80364 1.89124e+20 0 0 0 0 0 
289797 0 20.225 1.93135e+20 293.159 298.203 297.604 5002.41 0.453813 -5.49309 1.93135e+20 0 0 0 0 0 
101381 0 19.71 1.88217e+20 295.939 289.192 298.066 4996.97 -1.08889 4.8988 1.88217e+20 0 0 0 0 0 
166917 0 19.765 1.88742e+20 299.68 295.32 294.888 4999.73 -7.43486 7.50551 1.88742e+20 0 0 0 0 0 
232453 0 19.725 1.8836e+20 294.244 303.875 297.592 5000.69 -2.93017 -0.440439 1.8836e+20 0 0 0 0 0 
297989 0 19.6 1.87166e+20 296.1 300.913 298.838 5005.09 0.124928 -4.80238 1.87166e+20 0 0 0 0 0 
77829 0 19.95 1.90508e+20 297.34 301.322 299.624 5003.24 -4.42826 -3.07301 1.90508e+20 0 0 0 0 0 
143365 0 19.905 1.90079e+20 299.686 302.07 300.26 5010.12 -0.391979 1.21425 1.90079e+20 0 0 0 0 0 
208901 0 19.73 1.88408e+20 300.619 298.617 297.255 5002.46 -1.49303 3.03389 1.88408e+20 0 0 0 0 0 
274437 0 19.335 1.84636e+20 303.452 300.188 299.889 5001.94 1.9687 -2.46957 1.84636e+20 0 0 0 0 0 
86021 0 19.81 1.89172e+20 294.997 299.924 301.79 5004.01 0.126172 1.24026 1.89172e+20 0 0 0 0 0 
151557 0 20.005 1.91034e+20 299.904 298.978 297.603 5008.04 -1.19231 -0.497339 1.91034e+20 0 0 0 0 0 
217093 0 20.08 1.9175e+20 301.037 296.611 299.699 4996.54 -0.781413 -4.41888 1.9175e+20 0 0 0 0 0 
282629 0 19.75 1.88599e+20 299.799 304.135 297.672 5005.2 0.689396 1.10024 1.88599e+20 0 0 0 0 0 
94213 0 19.675 1.87882e+20 292.722 288.511 293.393 4995.63 -1.72488 2.44118 1.87882e+20 0 0 0 0 0 
159749 0 19.275 1.84063e+20 297.041 290.252 298.862 5000.99 -6.38845 9.88382 1.84063e+20 0 0 0 0 0 
225285 0 19.91 1.90126e+20 294.113 298.521 298.521 5003.52 -0.443933 -6.2667 1.90126e+20 0 0 0 0 0 
290821 0 19.545 1.86641e+20 294.819 302.682 301.093 5001.21 3.52915 -0.972223 1.86641e+20 0 0 0 0 0 
102405 0 19.535 1.86546e+20 300.01 296.679 294.388 4997.93 -3.86382 -0.77199 1.86546e+20 0 0 0 0 0 
167941 0 19.23 1.83633e+20 293.007 289.56 296.221 4997.94 -2.21102 3.1848 1.83633e+20 0 0 0 0 0 
233477 0 19.88 1.8984e+20 292.911 292.477 293.866 5005.37 -5.62765 -3.75596 1.8984e+20 0 0 0 0 0 
299013 0 19.475 1.85973e+20 293.381 294.45 297.054 5006.33 -1.62637 -6.77387 1.85973e+20 0 0 0 0 0 
74761 0 18.415 1.7585e+20 298.876 293.043 302.221 5002.66 -0.513564 8.18237 1.7585e+20 0 0 0 0 0 
140297 0 18.35 1.7523e+20 300.405 301.415 301.581 5004.3 -4.66952 0.0432636 1.7523e+20 0 0 0 0 0 
205833 0 18.715 1.78715e+20 295.763 304.153 300.916 5006.6 2.04994 0.0859443 1.78715e+20 0 0 0 0 0 
271369 0 18.41 1.75803e+20 315.778 304.1 304.202 4995.96 3.25253 -0.276125 1.75803e+20 0 0 0 0 0 
82953 0 17.915 1.71076e+20 357.523 303.717 306.209 4998.32 0.952885 -1.8291 1.71076e+20 0 0 0 0 0 
148489 0 18.84 1.79909e+20 1570.91 611.574 374.527 4874.38 -5.40051 -2.6711 1.79909e+20 0 0 0 0 0 
214025 0 18.655 1.78142e+20 372.307 321.629 300.566 4992.65 7.68867 1.68298 1.78142e+20 0 0 0 0 0 
279561 0 19.195 1.83299e+20 1908.76 596.234 373.305 4854.6 10.216 -17.5395 1.83299e+20 0 0 0 0 0 
91145 0 18.42 1.75898e+20 300.327 302.978 298.507 5000.16 7.19835 1.25655 1.75898e+20 0 0 0 0 0 
156681 0 18.37 1.75421e+20 297.108 297.426 304.049 5003.58 2.10887 4.76529 1.75421e+20 0 0 0 0 0 
222217 0 19.52 1.86402e+20 300.925 301.742 297.903 4999.6 0.35247 -3.77021 1.86402e+20 0 0 0 0 0 
287753 0 19.315 1.84445e+20 300.756 296.9 296.275 5000.72 -1.07195 -1.9307 1.84445e+20 0 0 0 0 0 
99337 0 18.295 1.74704e+20 296.349 299.453 300.645 5005.28 3.47353 -0.584066 1.74704e+20 0 0 0 0 0 
164873 0 19.565 1.86832e+20 2015.83 628.955 382.018 4850.65 4.52235 1.8126 1.86832e+20 0 0 0 0 0 
230409 0 19.25 1.83824e+20 329.939 309.313 299.963 4999.22 3.35584 -6.52518 1.83824e+20 0 0 0 0 0 
295945 0 19.405 1.85304e+20 1087.86 460.754 318.598 4928.42 2.02864 -4.43317 1.85304e+20 0 0 0 0 0 
75785 0 25.13 2.39974e+20 11662.7 4049.45 1560.35 3578.66 -5.40395 -12.2428 2.39974e+20 0 0 0 0 0 
141321 0 49.805 4.75603e+20 15742.6 8517.1 4983.81 1764.23 7.69972 -41.2444 4.75603e+20 0 0 0 0 0 
206857 0 26.03 2.48568e+20 12153.8 4371.46 1635.44 3472.55 8.2047 -17.3184 2.48568e+20 0 0 0 0 0 
272393 0 52.435 5.00717e+20 16048.4 8673.24 5359.6 1673.92 29.9869 -17.4086 5.00717e+20 0 0 0 0 0 
83977 0 93.45 8.92382e+20 13589 10228.3 7536.63 916.281 8.3674 -20.3847 8.92382e+20 0 0 0 0 0 
149513 0 138.75 1.32496e+21 12100.6 10780 8965.79 583.713 3.02743 1.87134 1.32496e+21 0 0 0 0 0 
215049 0 94.405 9.01501e+20 13714.8 10293.8 7581.88 870.577 -7.25274 4.00491 9.01501e+20 0 0 0 0 0 
280585 0 139.205 1.32931e+21 12119.2 10673.5 8988.68 578.074 8.25119 -1.6864 1.32931e+21 0 0 0 0 0 
92169 0 25.775 2.46133e+20 12222.4 4067.4 1603.55 3506.74 58.1051 -2.9932 2.46133e+20 0 0 0 0 0 
157705 0 51.26 4.89497e+20 15772.8 8606.83 5085.16 1683.7 33.5595 -22.1938 4.89497e+20 0 0 0 0 0 
223241 0 25.48 2.43316e+20 10628.6 3761.23 1345.79 3745.86 47.6043 7.12383 2.43316e+20 0 0 0 0 0 
288777 0 53.865 5.14373e+20 15454.3 8366.62 5024.87 1774.89 37.8781 -7.52451 5.14373e+20 0 0 0 0 0 
100361 0 91.695 8.75623e+20 13930.9 10436.2 7544.79 895.336 -1.68857 6.00062 8.75623e+20 0 0 0 0 0 
165897 0 136.8 1.30634e+21 12210.3 10852.3 8942.94 592.767 -3.17287 17.0942 1.30634e+21 0 0 0 0 0 
231433 0 97.035 9.26616e+20 13369.3 10250.4 7540.21 885.886 5.2199 -1.67854 9.26616e+20 0 0 0 0 0 
296969 0 140.265 1.33943e+21 12122.1 10544.1 8928.25 634.015 -6.80844 3.94193 1.33943e+21 0 0 0 0 0 
76809 0 19.435 1.85591e+20 301.568 302.512 298.919 5003.65 2.9331 -6.14486 1.85591e+20 0 0 0 0 0 
142345 0 19.85 1.89554e+20 311.653 303.324 297.896 4999.42 3.44306 0.502604 1.89554e+20 0 0 0 0 0 
207881 0 18.815 1.7967e+20 300.837 301.323 297.083 5003.45 -2.66511 -1.55244 1.7967e+20 0 0 0 0 0 
273417 0 18.77 1.7924e+20 394.133 338.094 294.796 4993.97 -0.900024 0.935819 1.7924e+20 0 0 0 0 0 
85001 0 19.735 1.88455e+20 321.621 303.794 299.921 4997.54 1.09493 -9.6253 1.88455e+20 0 0 0 0 0 
150537 0 19.64 1.87548e+20 1120.18 530.049 343.427 4929.78 1.78453 -1.79364 1.87548e+20 0 0 0 0 0 
216073 0 19.17 1.8306e+20 327.973 312.851 298.927 5000.22 1.74626 1.92787 1.8306e+20 0 0 0 0 0 
281609 0 19.005 1.81484e+20 904.082 442.7 318.66 4952.05 4.37588 -6.67143 1.81484e+20 0 0 0 0 0 
93193 0 18.645 1.78047e+20 298.523 299.036 296.248 5006.15 -1.1343 0.225345 1.78047e+20 0 0 0 0 0 
158729 0 18.51 1.76757e+20 343.899 303.986 295.574 4996.93 0.434231 -0.519592 1.76757e+20 0 0 0 0 0 
224265 0 18.44 1.76089e+20 296.868 294.815 298.816 5000.69 -2.55435 8.10349 1.76089e+20 0 0 0 0 0 
289801 0 19.275 1.84063e+20 325.421 299.538 296.592 5002.4 -3.35252 1.11519 1.84063e+20 0 0 0 0 0 
101385 0 18.9 1.80482e+20 338.815 313.183 296.466 4998.85 -3.29566 1.83124 1.80482e+20 0 0 0 0 0 
166921 0 18.4 1.75707e+20 1018.36 471.368 334.834 4941.22 8.65349 1.76311 1.75707e+20 0 0 0 0 0 
232457 0 18.73 1.78858e+20 357.237 320.094 299.344 4991.63 -3.56538 8.92542 1.78858e+20 0 0 0 0 0 
297993 0 19.155 1.82917e+20 830.27 483.517 332.521 4948.68 -7.36321 2.11008 1.82917e+20 0 0 0 0 0 
77833 0 26.325 2.51385e+20 10784 3761.95 1244.56 3730.39 35.2912 -15.8835 2.51385e+20 0 0 0 0 0 
143369 0 53.295 5.0893e+20 15527.8 8294.34 4762.07 1798.5 49.4746 -5.30876 5.0893e+20 0 0 0 0 0 
208905 0 24.53 2.34244e+20 10179.8 3403.21 1193.82 3835.29 23.3892 -3.93293 2.34244e+20 0 0 0 0 0 
274441 0 51.365 4.905e+20 15593.4 8468.17 4745.4 1800.66 9.24468 -25.6253 4.905e+20 0 0 0 0 0 
86025 0 100.285 9.57651e+20 13294.1 10081.9 7348 916.717 -6.80282 -12.1643 9.57651e+20 0 0 0 0 0 
151561 0 143.135 1.36684e+21 11798.8 10459.7 8924.32 619.626 10.4245 -15.2788 1.36684e+21 0 0 0 0 0 
217097 0 102 9.74028e+20 13065.8 10245.7 7499.36 892.144 -8.84476 -6.2748 9.74028e+20 0 0 0 0 0 
282633 0 141.86 1.35466e+21 11819.6 10574.9 8906.05 616.919 7.9112 -0.57218 1.35466e+21 0 0 0 0 0 
94217 0 24.16 2.30711e+20 9916.97 3322.49 1172.97 3821.53 -3.69135 18.9851 2.30711e+20 0 0 0 0 0 
159753 0 52.09 4.97423e+20 15386 8405.11 4678.65 1738.33 10.467 -11.5911 4.97423e+20 0 0 0 0 0 
225289 0 24.97 2.38446e+20 9940.83 3480.65 1175.09 3832.54 -22.6241 -10.6257 2.38446e+20 0 0 0 0 0 
290825 0 52.9 5.05158e+20 15423.8 8624.36 4643.41 1763.75 28.7744 -3.14561 5.05158e+20 0 0 0 0 0 
102409 0 99.425 9.49439e+20 13296.5 10415.8 7412.68 875.728 16.102 3.11055 9.49439e+20 0 0 0 0 0 
167945 0 143.385 1.36923e+21 11787.6 10792.3 9246.15 559.285 22.6952 -14.2721 1.36923e+21 0 0 0 0 0 
233481 0 104.7 9.99811e+20 12844.5 10270.4 7549.55 828.594 19.8785 30.6941 9.99811e+20 0 0 0 0 0 
299017 0 145.56 1.39e+21 11798.9 10593.7 9251.58 541.793 43.9513 -21.5585 1.39e+21 0 0 0 0 0 
74785 0 20.63 1.97002e+20 298.369 296.681 299.816 5001.52 3.95929 -1.10312 1.97002e+20 0 0 0 0 0 
140321 0 20.025 1.91225e+20 299.292 297.686 299.926 4999.94 -5.71974 -4.83988 1.91225e+20 0 0 0 0 0 
205857 0 20.565 1.96381e+20 297.893 302.08 298.167 4998.69 4.2527 2.93135 1.96381e+20 0 0 0 0 0 
271393 0 20.51 1.95856e+20 297.802 299.519 298.805 4998.57 1.00175 -2.01948 1.95856e+20 0 0 0 0 0 
82977 0 20.28 1.9366e+20 299.819 301.609 301.954 4995.86 -3.23445 -0.899603 1.9366e+20 0 0 0 0 0 
148513 0 20.06 1.91559e+20 302.53 295.757 301.069 4998.87 0.507834 -6.77161 1.91559e+20 0 0 0 0 0 
214049 0 20.485 1.95617e+20 299.957 293.684 292.727 4998.23 5.45214 -1.68784 1.95617e+20 0 0 0 0 0 
279585 0 20.495 1.95713e+20 296.415 299.709 295.675 4997.1 4.43634 -2.50872 1.95713e+20 0 0 0 0 0 
91169 0 20.48 1.9557e+20 299.302 294.56 297.925 4995.74 -3.02386 -3.00202 1.9557e+20 0 0 0 0 0 
156705 0 19.975 1.90747e+20 303.678 297.471 295.779 4996.88 -0.710678 -3.09743 1.90747e+20 0 0 0 0 0 
222241 0 20.395 1.94758e+20 304.869 303.186 299.47 5004.1 0.923094 -4.73862 1.94758e+20 0 0 0 0 0 
287777 0 20.385 1.94662e+20 307.578 294.638 300.136 4999.91 0.509155 -2.38327 1.94662e+20 0 0 0 0 0 
99361 0 20.3 1.93851e+20 298.647 302.659 297.855 4995.36 -9.39553 -6.14885 1.93851e+20 0 0 0 0 0 
164897 0 20.4 1.94806e+20 306.383 296.613 295.698 4995.85 -1.90873 1.1538 1.94806e+20 0 0 0 0 0 
230433 0 20.285 1.93707e+20 301.918 292.78 297.684 5001.11 -0.713462 -3.4594 1.93707e+20 0 0 0 0 0 
295969 0 20.21 1.92991e+20 304.716 294.583 297.891 5002.09 0.739677 -3.33763 1.92991e+20 0 0 0 0 0 
75809 0 20.08 1.9175e+20 299.406 296.705 299.73 5001.03 -10.1843 -4.85773 1.9175e+20 0 0 0 0 0 
141345 0 20.155 1.92466e+20 296.114 302.059 301.086 4994.51 3.93087 -1.63774 1.92466e+20 0 0 0 0 0 
206881 0 20.575 1.96477e+20 301.845 292.442 299.763 5005.64 3.3067 1.93872 1.96477e+20 0 0 0 0 0 
272417 0 20.625 1.96954e+20 298.427 296.844 295.295 4994.74 4.67756 -0.308038 1.96954e+20 0 0 0 0 0 
84001 0 20.01 1.91081e+20 292.135 297.138 300.212 4999.62 -0.36069 -6.51007 1.91081e+20 0 0 0 0 0 
149537 0 19.855 1.89601e+20 296.625 297.412 303.173 4998.65 -5.90642 -3.80815 1.89601e+20 0 0 0 0 0 
215073 0 20.125 1.9218e+20 301.967 303.972 296.843 5000.72 -0.0400216 2.77823 1.9218e+20 0 0 0 0 0 
280609 0 20.085 1.91798e+20 297.636 293.218 298.468 4998.48 4.50533 -1.9731 1.91798e+20 0 0 0 0 0 
92193 0 19.845 1.89506e+20 303.315 296.053 298.696 4999.83 0.78539 0.0031643 1.89506e+20 0 0 0 0 0 
157729 0 20.585 1.96572e+20 304.584 295.478 295.07 4997.87 -3.57307 -4.01708 1.96572e+20 0 0 0 0 0 
223265 0 20.095 1.91893e+20 309.861 294.957 300.748 4997.65 -3.14129 -2.17496 1.91893e+20 0 0 0 0 0 
288801 0 20.11 1.92036e+20 302.281 298.07 296.064 5002.72 -2.81632 -2.95881 1.92036e+20 0 0 0 0 0 
100385 0 19.91 1.90126e+20 309.591 299.462 297.926 4997.68 -4.88115 3.14043 1.90126e+20 0 0 0 0 0 
165921 0 20.42 1.94997e+20 306.839 300.405 294.617 4998.4 -3.6 0.630493 1.94997e+20 0 0 0 0 0 
231457 0 19.97 1.90699e+20 300.208 299.531 299.864 4995.72 -1.51989 -9.70499 1.90699e+20 0 0 0 0 0 
296993 0 19.755 1.88646e+20 300.344 294.378 299.187 5000.93 -2.50809 -3.1642 1.88646e+20 0 0 0 0 0 
76833 0 20.185 1.92753e+20 300.018 305.581 299.15 4998.15 -10.0733 -2.9981 1.92753e+20 0 0 0 0 0 
142369 0 20.125 1.9218e+20 300.557 302.23 298.611 5000.36 -1.50686 -3.50596 1.9218e+20 0 0 0 0 0 
207905 0 20.97 2.00249e+20 302.438 303.59 298.708 4992.62 1.45377 3.53989 2.00249e+20 0 0 0 0 0 
273441 0 20.18 1.92705e+20 299.318 302.442 296.976 5004.73 -0.486545 0.388457 1.92705e+20 0 0 0 0 0 
85025 0 20.07 1.91654e+20 304.168 297.611 299.319 4992.5 0.552495 -3.18958 1.91654e+20 0 0 0 0 0 
150561 0 20.485 1.95617e+20 299.179 308.595 297.765 4999.74 -1.00211 -5.42172 1.95617e+20 0 0 0 0 0 
216097 0 20.285 1.93707e+20 301.271 301.425 295.366 4998.25 -2.97967 4.31203 1.93707e+20 0 0 0 0 0 
281633 0 20.695 1.97623e+20 299.535 297.147 295.462 4994.88 -0.520888 5.03901 1.97623e+20 0 0 0 0 0 
93217 0 20.75 1.98148e+20 308.386 297.62 298.337 5000.69 4.96832 3.90235 1.98148e+20 0 0 0 0 0 
158753 0 20.225 1.93135e+20 308.589 297.67 297.943 5001.35 3.51266 4.29657 1.93135e+20 0 0 0 0 0 
224289 0 20.78 1.98434e+20 301.548 294.993 293.992 5000.28 -0.174649 2.28578 1.98434e+20 0 0 0 0 0 
289825 0 20.47 1.95474e+20 292.079 300.545 297.949 5000.78 2.87968 4.07941 1.95474e+20 0 0 0 0 0 
101409 0 20.56 1.96334e+20 301.109 297.013 301.095 5001.73 0.540134 5.26178 1.96334e+20 0 0 0 0 0 
166945 0 20.26 1.93469e+20 306.748 297.765 301.314 5001.13 1.11154 2.61567 1.93469e+20 0 0 0 0 0 
232481 0 20.565 1.96381e+20 300.771 298.462 297 4997.98 -2.28996 2.56598 1.96381e+20 0 0 0 0 0 
298017 0 20.445 1.95235e+20 301.403 303.296 297.209 4998.69 -1.98162 7.60808 1.95235e+20 0 0 0 0 0 
77857 0 20.06 1.91559e+20 297.646 304.025 302.274 4994.85 4.12711 -2.22312 1.91559e+20 0 0 0 0 0 
143393 0 20.32 1.94042e+20 302.739 304.111 296.198 4999.09 1.79982 -1.56051 1.94042e+20 0 0 0 0 0 
208929 0 19.91 1.90126e+20 300.249 301.918 295.842 4998.74 -3.98456 2.73065 1.90126e+20 0 0 0 0 0 
274465 0 20.33 1.94137e+20 302.059 299.011 295.285 4997.12 -1.66069 -1.77163 1.94137e+20 0 0 0 0 0 
86049 0 20.165 1.92562e+20 296.698 308.794 298.437 4997.17 -2.02531 -8.84598 1.92562e+20 0 0 0 0 0 
151585 0 20.055 1.91511e+20 298.252 304.921 299.38 4996.36 4.16903 2.37279 1.91511e+20 0 0 0 0 0 
217121 0 20.49 1.95665e+20 301.839 295.314 295.384 4996.12 -3.89018 0.477113 1.95665e+20 0 0 0 0 0 
282657 0 19.96 1.90604e+20 295.076 304.005 296.112 4995.49 -3.73952 1.45487 1.90604e+20 0 0 0 0 0 
94241 0 20.27 1.93564e+20 303.345 289.697 297.362 5006 2.20059 5.02108 1.93564e+20 0 0 0 0 0 
159777 0 20.175 1.92657e+20 304.036 299.5 303.406 5003.69 5.3017 2.08406 1.92657e+20 0 0 0 0 0 
225313 0 20.48 1.9557e+20 299.017 300.033 296.467 4999.89 2.11188 0.626189 1.9557e+20 0 0 0 0 0 
290849 0 20.68 1.97479e+20 303.903 296.967 297.449 4997.07 2.50624 0.310627 1.97479e+20 0 0 0 0 0 
102433 0 20.39 1.9471e+20 299.499 297.087 301.209 5000.27 8.88115 4.5323 1.9471e+20 0 0 0 0 0 
167969 0 20.55 1.96238e+20 303.107 297.644 301.834 5007.76 -5.86456 4.96917 1.96238e+20 0 0 0 0 0 
233505 0 20.355 1.94376e+20 299.301 306.17 299.081 5002.81 -0.686076 6.70361 1.94376e+20 0 0 0 0 0 
299041 0 20.16 1.92514e+20 304.435 296.793 296.552 4998.35 -1.285 0.664745 1.92514e+20 0 0 0 0 0 
74789 0 19.5 1.86211e+20 295.812 299.351 298.288 5004.62 -4.21856 -1.83995 1.86211e+20 0 0 0 0 0 
140325 0 19.19 1.83251e+20 289.378 301.688 298.788 5007.35 -2.73869 -2.76994 1.83251e+20 0 0 0 0 0 
205861 0 19.63 1.87453e+20 301.297 301.438 299.16 5000.97 -0.287033 4.26461 1.87453e+20 0 0 0 0 0 
271397 0 19.7 1.88121e+20 303.117 298.211 299.025 4998.31 3.14152 1.92928 1.88121e+20 0 0 0 0 0 
82981 0 19.15 1.82869e+20 289.653 305.266 302.014 5002.81 -3.60393 -7.52281 1.82869e+20 0 0 0 0 0 
148517 0 19.32 1.84492e+20 292.318 309.427 299.424 5003.69 -5.07527 -2.88558 1.84492e+20 0 0 0 0 0 
214053 0 19.505 1.86259e+20 298.332 298.213 301.102 5000.14 -3.45592 1.01612 1.86259e+20 0 0 0 0 0 
279589 0 19.675 1.87882e+20 301.357 298.596 298.559 4999.76 4.97279 4.40019 1.87882e+20 0 0 0 0 0 
91173 0 19.035 1.81771e+20 305.369 301.44 299.647 4996.55 4.90516 1.59539 1.81771e+20 0 0 0 0 0 
156709 0 19.185 1.83203e+20 304.615 292.648 299.788 5001.87 3.33605 1.7835 1.83203e+20 0 0 0 0 0 
222245 0 19.215 1.8349e+20 289.559 296.351 298.072 5004.36 -3.76191 0.357138 1.8349e+20 0 0 0 0 0 
287781 0 19.155 1.82917e+20 299.309 298.245 297.686 5000.37 -3.75185 -3.77535 1.82917e+20 0 0 0 0 0 
99365 0 19.3 1.84301e+20 299.01 306.81 296.075 5000.52 1.84775 0.0554092 1.84301e+20 0 0 0 0 0 
164901 0 18.99 1.81341e+20 305.287 298.699 299.319 5001.6 1.78609 1.93016 1.81341e+20 0 0 0 0 0 
230437 0 19.11 1.82487e+20 296.002 293.894 295.831 5001.99 -2.17869 -6.18706 1.82487e+20 0 0 0 0 0 
295973 0 18.925 1.8072e+20 298.261 298.569 299.171 5002.26 -0.138557 2.68795 1.8072e+20 0 0 0 0 0 
75813 0 19.03 1.81723e+20 292.313 301.639 298.216 5000.97 -2.15462 -8.07068 1.81723e+20 0 0 0 0 0 
141349 0 19.07 1.82105e+20 295.821 301.891 298.285 5005.57 -6.21432 -1.38733 1.82105e+20 0 0 0 0 0 
206885 0 19.61 1.87262e+20 299.943 297.067 297.261 4999.47 -2.65033 0.192055 1.87262e+20 0 0 0 0 0 
272421 0 19.33 1.84588e+20 303.892 298.802 303.778 5000.85 3.3286 7.50443 1.84588e+20 0 0 0 0 0 
84005 0 19.15 1.82869e+20 293.96 302.871 299.783 5002.78 -4.13355 -2.21532 1.82869e+20 0 0 0 0 0 
149541 0 19.44 1.85638e+20 297.296 304.254 296.293 4997.12 -8.1098 -3.58268 1.85638e+20 0 0 0 0 0 
215077 0 18.975 1.81198e+20 294.77 303.729 295.851 4997.21 -3.06234 -4.12923 1.81198e+20 0 0 0 0 0 
280613 0 19.045 1.81866e+20 305.532 297.724 298.681 5002.39 0.941876 2.05389 1.81866e+20 0 0 0 0 0 
92197 0 19.1 1.82392e+20 300.411 302.72 297.126 5004.23 6.93282 2.78262 1.82392e+20 0 0 0 0 0 
157733 0 19.465 1.85877e+20 307.4 301.579 296.305 4999.1 0.824757 -4.12995 1.85877e+20 0 0 0 0 0 
223269 0 18.98 1.81246e+20 299.605 289.227 293.814 5002.8 -2.20598 -1.30743 1.81246e+20 0 0 0 0 0 
288805 0 18.885 1.80338e+20 299.111 292.838 297.637 5003.39 -3.09843 -2.83465 1.80338e+20 0 0 0 0 0 
100389 0 19.26 1.83919e+20 301.498 298.598 300.649 5005.18 6.06306 3.21391 1.83919e+20 0 0 0 0 0 
165925 0 19.435 1.85591e+20 305.305 303.128 294.643 5000.4 6.46553 -1.86054 1.85591e+20 0 0 0 0 0 
231461 0 18.84 1.79909e+20 295.061 293.387 296.818 5002.13 1.95499 1.22228 1.79909e+20 0 0 0 0 0 
296997 0 18.745 1.79002e+20 296.972 295.931 297.071 5001.92 -1.06295 -3.4592 1.79002e+20 0 0 0 0 0 
76837 0 19.315 1.84445e+20 294.084 299.127 299.533 4997.55 5.64377 1.42322 1.84445e+20 0 0 0 0 0 
142373 0 19.345 1.84731e+20 298.073 304.896 298.423 5002.03 3.61748 0.186437 1.84731e+20 0 0 0 0 0 
207909 0 19.125 1.8263e+20 299.79 304.07 300.556 4994.5 0.948972 4.38864 1.8263e+20 0 0 0 0 0 
273445 0 19.435 1.85591e+20 297.583 300.193 297.922 4997.28 -0.589812 -3.15731 1.85591e+20 0 0 0 0 0 
85029 0 18.985 1.81293e+20 290.275 298.205 300.347 4995.93 3.1099 -0.565229 1.81293e+20 0 0 0 0 0 
150565 0 19.275 1.84063e+20 295.98 300.889 298.686 4996.61 -2.7182 0.844818 1.84063e+20 0 0 0 0 0 
216101 0 19.2 1.83346e+20 298.469 296.055 295.898 5000.63 3.90595 1.24459 1.83346e+20 0 0 0 0 0 
281637 0 19.11 1.82487e+20 301.263 301.207 299.488 4994.16 0.457391 1.12321 1.82487e+20 0 0 0 0 0 
93221 0 18.945 1.80911e+20 294.937 295.388 297.291 4999.61 2.77805 4.36666 1.80911e+20 0 0 0 0 0 
158757 0 19.395 1.85209e+20 297.948 311.052 298.918 5002.5 -8.09126 0.403861 1.85209e+20 0 0 0 0 0 
224293 0 19.22 1.83537e+20 300.311 296.474 296.392 5006.95 -4.62958 -0.0898139 1.83537e+20 0 0 0 0 0 
289829 0 19.51 1.86307e+20 305.205 294.749 296.739 4998.72 3.12292 -0.866791 1.86307e+20 0 0 0 0 0 