ITEM: TIMESTEP
20000
ITEM: NUMBER OF SURFS
134
ITEM: BOX BOUNDS oo ao pp
-2.5 5
0 5
-0.0005 0.0005
ITEM: SURFS id f_avg_pressure[1] f_avg_pressure[2] f_avg_pressure[3] f_avg_pressure[4] f_avg_shear[1] f_avg_shear[2] f_avg_shear[3] f_avg_heat_flux[*] 
1 341.853 341.629 12.3661 0 0.0282307 -0.779906 0.58869 169914 
5 344.742 344.74 -1.14505 0 0.0164764 4.96055 0.542528 224342 
9 341.784 341.471 -14.6417 0 0.166915 3.89276 -0.455074 171007 
13 335.634 334.496 -27.6132 0 0.558269 6.76267 1.48387 193743 
17 341.702 339.168 -41.5393 0 1.44113 11.7668 -1.27256 160740 
21 336.547 332.174 -54.0756 0 2.50669 15.398 1.65995 173828 
25 320.326 313.884 -63.9206 0 2.99283 14.6964 -2.86003 152291 
29 311.574 302.613 -74.187 0 5.2884 21.5717 0.126642 182905 
33 311.467 299.343 -86.0529 0 6.77461 23.5661 -3.17127 152232 
37 301.496 286.244 -94.6783 0 8.26343 24.9831 -1.96613 162061 
41 289.353 270.912 -101.645 0 10.2293 27.2637 -1.41532 154168 
45 258.602 238.344 -100.335 0 13.3352 31.6773 0.777103 158695 
49 231.773 209.897 -98.2953 0 17.511 37.3925 2.36417 141443 
53 73.1978 34.5929 -64.5077 0 24.8051 13.302 -0.800537 54754.4 
57 11.2851 -3.13969 -10.8396 0 5.39618 -1.56301 -0.0674668 6918.8 
61 4.74031 -2.54653 -3.99821 0 3.05894 -1.94829 -0.217067 4592.9 
65 4.043 -2.17193 -3.41006 0 1.51582 -0.965452 -0.350322 3221.06 
69 2.1892 -1.17604 -1.8465 0 1.26559 -0.806055 0.377382 2787.93 
73 4.91708 -2.64149 -4.14731 0 1.9663 -1.25237 0.0306577 3578.3 
77 3.51344 -1.88742 -2.96343 0 0.776437 -0.494515 0.577211 1610.58 
81 3.57807 -1.92217 -3.01793 0 0.800658 -0.509954 0.411938 2027.58 
85 4.11391 -2.21003 -3.46987 0 0.926355 -0.590015 0.232824 1767.35 
89 3.34405 -1.79646 -2.82053 0 0.968611 -0.616932 0.0930975 1611.76 
93 4.06738 -2.18508 -3.4306 0 0.986977 -0.628646 0.00403002 1760.14 
97 3.41959 -1.83707 -2.88423 0 0.650261 -0.414174 -0.204839 1585.35 
101 3.9848 -2.14066 -3.36099 0 0.969184 -0.617287 -0.0806096 2238.61 
105 3.61098 -1.93983 -3.04569 0 0.405785 -0.258449 -0.0908771 1563.52 
109 3.43354 -1.84451 -2.89603 0 0.889683 -0.56665 -0.205903 1434.94 
113 4.33453 -2.32854 -3.65596 0 0.379199 -0.241518 0.146585 1817.57 
117 2.18586 -2.18586 0 0 0 -0.327561 0.327189 879.692 
121 4.35559 -4.35559 0 0 0 0.262986 -0.136652 1437.29 
125 5.22249 -5.22249 0 0 0 0.0498548 0.0585712 1483.94 
129 5.73176 -5.73176 0 0 0 0.320679 0.0333467 1467.57 
133 6.7503 -6.7503 0 0 0 0.0369506 0.116312 1630.4 
2 345.243 345.124 9.07714 0 -0.078446 2.98262 1.92184 171595 
6 341.72 341.69 -4.51185 0 0.0549884 4.16437 3.17799 193021 
10 341.044 340.57 -17.9726 0 0.353786 6.70404 1.8345 177966 
14 336.096 334.668 -30.953 0 1.21032 13.0861 -2.09832 202817 
18 338.57 335.636 -44.4771 0 1.875 14.1493 -1.76427 185644 
22 329.665 324.841 -56.1885 0 2.85463 16.5034 -1.10877 170860 
26 322.731 315.589 -67.5195 0 4.40176 20.574 1.96599 181776 
30 314.157 304.369 -77.8095 0 5.56432 21.7661 -0.766002 180216 
34 304.896 292.183 -87.1243 0 7.63748 25.6133 0.117539 193549 
38 287.192 271.76 -92.8748 0 8.58839 25.1305 2.32034 176595 
42 276.847 258.23 -99.8072 0 12.2537 31.704 -0.850879 177203 
46 258.719 237.447 -102.733 0 13.5861 31.4017 0.313092 144991 
50 204.405 179.584 -97.6252 0 21.3288 39.235 0.369559 141186 
54 48.4176 14.2476 -46.2739 0 20.0446 6.17168 -0.206008 37368.8 
58 8.11937 -3.71691 -7.21864 0 3.68145 -1.89559 0.182872 5859.8 
62 4.1312 -2.21931 -3.48446 0 2.35163 -1.49779 -0.391738 4156.78 
66 4.62337 -2.48365 -3.89961 0 1.92078 -1.22334 0.0145094 3880.24 
70 3.3769 -1.8141 -2.84825 0 1.94441 -1.23843 0.181612 3348.17 
74 4.52527 -2.43101 -3.81684 0 2.06777 -1.317 -0.353227 3312.19 
78 3.89581 -2.09291 -3.28588 0 1.35224 -0.861295 -0.0959406 3191.91 
82 4.91407 -2.63995 -4.14473 0 1.39598 -0.889155 0.37626 2661.36 
86 2.7732 -1.48979 -2.33905 0 0.610166 -0.38863 0.343167 1422.02 
90 3.30828 -1.77724 -2.79037 0 0.888942 -0.566183 0.0829919 1710.03 
94 3.98169 -2.13899 -3.35837 0 0.806547 -0.513701 -0.002961 1941.25 
98 3.59101 -1.92911 -3.02884 0 1.34707 -0.857967 0.434566 2441.24 
102 3.71075 -1.99343 -3.12984 0 0.65598 -0.417802 -0.220319 1533.58 
106 3.539 -1.90117 -2.98497 0 0.546298 -0.347944 0.286746 1432.27 
110 4.3353 -2.32894 -3.65662 0 0.779103 -0.49622 0.0960388 2320.86 
114 4.13937 -2.22371 -3.49135 0 0.566228 -0.360643 0.054947 1656 
118 2.84052 -2.84052 0 0 0 -0.0425257 -0.0583514 1089.06 
122 3.98331 -3.98331 0 0 0 0.0615095 0.0390965 1039.99 
126 5.60717 -5.60717 0 0 0 0.0654792 -0.164483 1607.57 
130 6.00811 -6.00811 0 0 0 0.0417628 0.261897 1631.88 
134 6.69565 -6.69565 0 0 0 -0.296491 0.39883 2692.26 
3 343.618 343.572 5.64296 0 0.0152172 -0.9265 0.412404 190916 
7 338.412 338.322 -7.81369 0 0.108599 4.7022 0.0298177 170926 
11 338.56 337.896 -21.1818 0 0.505503 8.06389 -0.726295 184276 
15 335.648 333.899 -34.2156 0 1.48789 14.5198 -2.62416 214186 
19 330.874 327.561 -46.7049 0 2.329 16.3342 0.326471 195703 
23 327.65 322.29 -59.0245 0 3.85103 21.0277 -0.500695 194885 
27 320.788 313.009 -70.2132 0 5.27155 23.5005 1.78309 203357 
31 309.862 299.434 -79.7098 0 5.36019 20.1358 0.737878 169547 
35 304.627 291.05 -89.9286 0 7.41528 23.9992 -0.55917 159580 
39 294.806 278.009 -98.0907 0 9.47912 26.8658 1.37048 157295 
43 275.185 255.687 -101.739 0 11.315 28.4364 -1.42401 150515 
47 246.387 225.152 -100.065 0 15.5988 35.0983 1.85859 156593 
51 151.044 116.351 -96.3145 0 25.7929 31.1587 1.38886 108970 
55 34.8517 3.65797 -34.6592 0 13.7438 1.45054 -0.432025 23014.8 
59 4.28361 -2.30119 -3.61301 0 1.89637 -1.20784 -0.0279361 3044.81 
63 3.62148 -1.94546 -3.05455 0 1.288 -0.820334 0.238593 1692.18 
67 5.66582 -3.04372 -4.77883 0 2.89081 -1.84121 0.060409 4806.45 
71 4.48037 -2.40693 -3.77895 0 2.55449 -1.62704 0.638833 4679.99 
75 4.01061 -2.15455 -3.38274 0 2.08296 -1.32669 -0.139425 3510.61 
79 2.81436 -1.5119 -2.37377 0 0.974759 -0.620841 0.113422 2244.51 
83 3.09049 -1.6602 -2.60669 0 1.14926 -0.731967 -0.185753 1946.21 
87 3.3067 -1.77639 -2.78904 0 1.25982 -0.802404 -0.288445 1862.31 
91 3.99781 -2.14766 -3.37195 0 0.944311 -0.601451 0.141378 1738.81 
95 3.80531 -2.04423 -3.2096 0 0.966047 -0.615288 -0.0775623 2653.14 
99 4.30572 -2.31305 -3.63166 0 1.18597 -0.755359 -0.16161 2487.01 
103 3.87691 -2.0827 -3.26999 0 0.714117 -0.454831 0.0299176 1333.49 
107 3.65469 -1.96337 -3.08252 0 0.381317 -0.242874 -0.15072 1428.23 
111 4.6002 -2.47132 -3.88 0 0.719716 -0.458414 0.147555 1888.91 
115 4.91268 -2.63913 -4.1436 0 0.507481 -0.323224 0.0180146 1988.05 
119 3.85497 -3.85497 0 0 0 0.320645 -0.0486267 1215.95 
123 4.79593 -4.79593 0 0 0 0.104338 -0.00573865 1553.57 
127 5.35339 -5.35339 0 0 0 -0.0663997 0.084095 1964.65 
131 5.59118 -5.59118 0 0 -1.74555e-15 0.0237962 0.203738 1901.85 
4 340.56 340.553 2.22804 0 -0.028334 4.33081 -3.97287 215458 
8 338.996 338.812 -11.1709 0 0.210592 6.3872 1.36252 168203 
12 336.295 335.412 -24.3505 0 0.765515 10.5445 -2.54449 187258 
16 332.657 330.573 -37.1787 0 1.35832 12.0775 -2.58592 193284 
20 326.785 323.043 -49.3159 0 2.94104 19.2652 -0.239336 216520 
24 322.514 316.649 -61.2295 0 4.06268 21.0102 0.488432 201884 
28 314.659 306.336 -71.8915 0 4.36593 18.6036 1.77454 154262 
32 301.635 290.704 -80.4664 0 7.61154 27.4985 -1.09552 196186 
36 297.243 283.115 -90.5494 0 8.57743 26.8185 1.42101 182371 
40 287.306 269.98 -98.263 0 10.9919 30.2005 1.00618 185534 
44 270.324 250.17 -102.422 0 12.6739 30.9563 1.53339 162743 
48 239.966 218.312 -99.6154 0 17.0335 37.3297 -0.491457 149009 
52 108.449 68.6782 -83.9308 0 25.4724 20.8434 0.263357 77772.9 
56 18.4945 -1.63313 -18.4223 0 7.94422 -0.704252 0.517234 11364.2 
60 4.19645 -2.25438 -3.53948 0 2.21037 -1.40784 0.425476 3176.55 
64 5.16436 -2.77443 -4.35582 0 2.37109 -1.51026 -1.15291 5425.2 
68 4.6667 -2.50705 -3.93609 0 3.09366 -1.97047 -0.426047 4853.3 
72 4.02997 -2.16493 -3.39908 0 1.91008 -1.21656 -0.408794 3885.5 
76 4.25444 -2.28553 -3.5884 0 2.18186 -1.38967 0.0833921 3926.58 
80 4.07435 -2.18874 -3.43653 0 1.25202 -0.797414 -0.45068 2300.83 
84 3.90999 -2.10048 -3.29788 0 1.16897 -0.744539 0.130826 2331.21 
88 3.4075 -1.83054 -2.87405 0 0.567688 -0.361572 0.347652 1517.58 
92 3.27834 -1.76112 -2.76514 0 0.615054 -0.391728 0.342757 1463.83 
96 4.09972 -2.20239 -3.45792 0 0.809287 -0.515444 -0.117838 2276.29 
100 4.3949 -2.36102 -3.70685 0 1.04407 -0.665005 -0.0907274 2115.65 
104 3.70652 -1.99122 -3.12624 0 0.644788 -0.41069 0.0573661 1429.55 
108 4.57867 -2.45969 -3.86189 0 0.875984 -0.557926 -0.0125574 1621.85 
112 3.83562 -2.06052 -3.23516 0 0.452368 -0.288119 -0.177702 1466.25 
116 4.62115 -2.48252 -3.8977 0 0.795624 -0.506748 0.167535 1653.41 
120 3.80253 -3.80253 0 0 0 0.186948 0.248234 1229.6 
124 5.87412 -5.87412 0 0 0 0.28233 0.354158 992.413 
128 5.58423 -5.58423 0 0 0 0.00465869 0.101254 1722.49 
132 6.49964 -6.49964 0 0 0 0.159874 0.0595849 1849.45 
