ITEM: TIMESTEP
21000
ITEM: NUMBER OF SURFS
134
ITEM: BOX BOUNDS oo ao pp
-2.5 5
0 5
-0.0005 0.0005
ITEM: SURFS id f_avg_pressure[1] f_avg_pressure[2] f_avg_pressure[3] f_avg_pressure[4] f_avg_shear[1] f_avg_shear[2] f_avg_shear[3] f_avg_heat_flux[*] 
1 340.118 339.896 12.3034 0 0.0250109 -0.690955 0.20953 166009 
5 343.614 343.612 -1.1413 0 0.0134773 4.05761 0.155547 218936 
9 342.763 342.448 -14.6836 0 0.230893 5.38484 -0.471967 168759 
13 335.957 334.818 -27.6398 0 0.54799 6.63815 1.402 190334 
17 341.191 338.66 -41.4772 0 1.39023 11.3512 -0.938639 156879 
21 337.528 333.143 -54.2333 0 2.40309 14.7616 1.5174 169721 
25 320.527 314.081 -63.9607 0 3.01365 14.7986 -2.34683 149570 
29 312.285 303.304 -74.3562 0 5.30174 21.6262 -0.0834785 180061 
33 312.553 300.387 -86.3529 0 6.64069 23.1003 -2.81324 149897 
37 301.591 286.334 -94.7081 0 8.00675 24.2071 -1.80626 157961 
41 287.99 269.636 -101.167 0 10.0405 26.7605 -1.5338 149458 
45 260.057 239.685 -100.9 0 13.4982 32.0647 1.40676 155675 
49 232.372 210.44 -98.5492 0 17.3534 37.0559 2.80785 140173 
53 73.3604 34.6697 -64.651 0 24.4936 13.1349 -0.751134 53648.5 
57 11.6302 -3.2357 -11.171 0 5.41096 -1.56729 -0.0609169 7214.81 
61 4.45925 -2.39555 -3.76116 0 2.80755 -1.78818 -0.156013 4284.05 
65 4.34267 -2.33292 -3.66282 0 1.66052 -1.05762 -0.383812 3497.9 
69 2.18566 -1.17413 -1.8435 0 1.37818 -0.877767 0.505312 2841.26 
73 5.09988 -2.7397 -4.30149 0 1.95976 -1.24821 0.103954 3468.35 
77 3.8545 -2.07064 -3.2511 0 1.01086 -0.643822 0.406871 1865.75 
81 3.82338 -2.05395 -3.22483 0 0.757103 -0.482213 0.339568 1995.29 
85 4.21602 -2.26489 -3.556 0 1.0712 -0.682268 0.322158 1855.63 
89 3.59729 -1.93251 -3.03413 0 1.02809 -0.654818 0.131061 1688.33 
93 4.46341 -2.39784 -3.76463 0 1.05149 -0.669738 0.147047 2048.46 
97 3.61449 -1.94177 -3.04861 0 0.738539 -0.470402 -0.169738 1641.6 
101 4.11563 -2.21094 -3.47133 0 1.06541 -0.678572 -0.072382 2284.09 
105 3.95329 -2.12372 -3.33441 0 0.462008 -0.294258 -0.0572838 1714.82 
109 3.41325 -1.83361 -2.87891 0 0.828167 -0.527469 -0.20028 1323.34 
113 4.44619 -2.38853 -3.75014 0 0.377346 -0.240338 0.116909 1745.28 
117 2.14401 -2.14401 0 0 0 -0.341705 0.343128 813.478 
121 4.30319 -4.30319 0 0 0 0.345445 -0.18684 1391.46 
125 5.65403 -5.65403 0 0 0 -0.0209506 0.103996 1471.32 
129 5.99452 -5.99452 0 0 0 0.384536 -0.0184814 1659.66 
133 6.86987 -6.86987 0 0 0 0.0725505 0.178747 1636.55 
2 345.047 344.928 9.07198 0 -0.0747587 2.84242 2.12219 167830 
6 342.686 342.656 -4.52461 0 0.0510737 3.8679 3.08767 189688 
10 343.103 342.626 -18.0811 0 0.34708 6.57696 0.996031 175374 
14 336.911 335.479 -31.0279 0 1.14853 12.4181 -2.22044 199295 
18 338.306 335.374 -44.4423 0 1.80743 13.6394 -2.52446 181601 
22 330.617 325.779 -56.3508 0 2.80009 16.1881 -0.67777 168372 
26 323.958 316.789 -67.7762 0 4.35094 20.3365 2.10094 178392 
30 315.567 305.734 -78.1586 0 5.73606 22.4378 -0.844413 176638 
34 305.789 293.039 -87.3795 0 7.5709 25.3901 0.671877 189141 
38 286.498 271.103 -92.6502 0 8.94336 26.1691 2.13732 173261 
42 277.897 259.21 -100.186 0 12.1143 31.3433 -0.334378 174068 
46 259.128 237.823 -102.895 0 13.0318 30.1207 0.707966 141800 
50 202.97 178.324 -96.9399 0 20.9361 38.5126 -0.0962963 137604 
54 48.7145 14.335 -46.5576 0 19.9979 6.15731 -0.0309832 36669.5 
58 7.95807 -3.64307 -7.07524 0 3.59392 -1.85052 0.0692491 5536.12 
62 4.37492 -2.35024 -3.69003 0 2.35228 -1.4982 -0.346493 4306.86 
66 4.55621 -2.44758 -3.84297 0 1.97474 -1.2577 -0.0860282 3917.42 
70 3.44473 -1.85054 -2.90546 0 1.9465 -1.23976 0.108781 3339.8 
74 4.48916 -2.41162 -3.78638 0 2.01352 -1.28245 -0.174198 3226.35 
78 3.78426 -2.03299 -3.1918 0 1.33751 -0.851913 -0.0889195 2922.92 
82 4.61487 -2.47921 -3.89237 0 1.33805 -0.852263 0.364032 2476.99 
86 2.93298 -1.57563 -2.47382 0 0.590897 -0.376357 0.336235 1599.39 
90 3.60647 -1.93743 -3.04188 0 0.916399 -0.583671 -0.00150308 1857.09 
94 4.19142 -2.25165 -3.53526 0 0.812964 -0.517788 0.0217638 2016.17 
98 3.88057 -2.08466 -3.27307 0 1.50859 -0.96084 0.173998 2579.37 
102 3.98193 -2.13911 -3.35857 0 0.705819 -0.449545 -0.2259 1674.12 
106 3.66476 -1.96873 -3.09105 0 0.598168 -0.380981 0.28004 1460.9 
110 4.3757 -2.35064 -3.69069 0 0.73854 -0.470385 0.0907328 2062.36 
114 4.28821 -2.30367 -3.61688 0 0.475068 -0.302581 0.12619 1440.73 
118 3.28911 -3.28911 0 0 0 -0.110302 -0.130431 1241.26 
122 4.16005 -4.16005 0 0 0 0.106463 0.0806974 1089.98 
126 5.72796 -5.72796 0 0 0 0.134943 -0.0730551 1543.53 
130 6.18255 -6.18255 0 0 0 0.00506228 0.209916 1731.92 
134 6.82036 -6.82036 0 0 0 -0.179437 0.354991 2509.7 
3 344.968 344.922 5.66513 0 0.00529957 -0.322665 1.11483 188848 
7 342.683 342.592 -7.9123 0 0.109618 4.7463 -0.222747 168164 
11 338.464 337.801 -21.1758 0 0.515927 8.23019 -0.838111 180795 
15 336.806 335.051 -34.3336 0 1.43351 13.9892 -1.68481 210282 
19 331.528 328.209 -46.7973 0 2.24504 15.7454 0.169196 191930 
23 328.833 323.453 -59.2375 0 3.80027 20.7505 -0.513393 192198 
27 321.124 313.338 -70.2869 0 5.29576 23.6084 1.28905 199163 
31 310.854 300.393 -79.9651 0 5.32749 20.013 1.397 165528 
35 305.938 292.303 -90.3157 0 7.33731 23.7469 -1.01479 157734 
39 294.372 277.6 -97.9462 0 9.43509 26.741 1.64567 153890 
43 275.969 256.415 -102.029 0 11.4445 28.7619 -0.786713 147967 
47 246.703 225.441 -100.193 0 15.5232 34.928 1.83367 154035 
51 151.718 116.871 -96.7448 0 25.7024 31.0494 1.20211 107341 
55 34.4217 3.61284 -34.2316 0 13.6196 1.43743 -0.153714 22271.1 
59 4.34468 -2.334 -3.66452 0 1.91765 -1.22138 -0.0598902 3075.77 
63 3.95568 -2.12499 -3.33644 0 1.41156 -0.89903 0.685104 1932.14 
67 5.07485 -2.72625 -4.28038 0 2.56767 -1.6354 0.114826 4464.22 
71 4.57741 -2.45906 -3.86079 0 2.54603 -1.62165 0.343964 4732.3 
75 4.57056 -2.45536 -3.85503 0 2.2207 -1.41442 -0.0780571 3885.2 
79 3.07423 -1.6515 -2.59296 0 1.09981 -0.700487 -0.0112061 2205.78 
83 3.41134 -1.83256 -2.87731 0 1.2574 -0.80084 -0.132731 2070.53 
87 3.68693 -1.98065 -3.10974 0 1.29134 -0.822476 -0.199038 2150.35 
91 4.12543 -2.21622 -3.47958 0 1.05904 -0.674521 -0.0779872 1755.35 
95 4.03502 -2.16764 -3.40334 0 1.01168 -0.644355 -0.0795329 2748.14 
99 4.49264 -2.41347 -3.78933 0 1.27217 -0.810259 -0.172023 2530.92 
103 3.93575 -2.11431 -3.31961 0 0.791321 -0.504003 -0.0633941 1337.87 
107 3.77712 -2.02914 -3.18578 0 0.47106 -0.300035 -0.114058 1461.75 
111 4.75757 -2.55586 -4.01273 0 0.670804 -0.42726 0.123962 1829.43 
115 5.0794 -2.72869 -4.28421 0 0.476295 -0.303361 0.109978 1902.43 
119 3.95164 -3.95164 0 0 0 0.282267 -0.136526 1191.86 
123 4.90961 -4.90961 0 0 0 0.112084 0.0658155 1400.27 
127 5.78614 -5.78614 0 0 0 -0.122284 0.072975 1887.16 
131 5.86124 -5.86124 0 0 -1.82932e-15 0.0590648 0.157406 1873.93 
4 341.699 341.692 2.2355 0 -0.0295133 4.51106 -3.46832 212392 
8 341.58 341.394 -11.2561 0 0.200965 6.09523 0.421562 166371 
12 336.332 335.449 -24.3532 0 0.730466 10.0617 -2.21565 184975 
16 333.506 331.417 -37.2736 0 1.36208 12.1109 -1.70805 188805 
20 327.883 324.128 -49.4816 0 2.84558 18.6399 -0.142049 212090 
24 324.482 318.581 -61.6031 0 4.06581 21.0263 0.828265 199563 
28 316.836 308.456 -72.3889 0 4.26211 18.1612 2.12623 150712 
32 304.001 292.984 -81.0976 0 7.43831 26.8726 -0.114188 192941 
36 297.55 283.407 -90.643 0 8.65738 27.0684 1.37935 178339 
40 288.016 270.647 -98.5057 0 10.9009 29.9505 0.459003 181683 
44 271.001 250.796 -102.679 0 12.8263 31.3286 1.63673 160418 
48 240.582 218.873 -99.8713 0 16.8682 36.9675 -0.470224 147116 
52 108.643 68.8017 -84.0817 0 25.8051 21.1156 -0.179944 76182.7 
56 19.2196 -1.69715 -19.1445 0 8.43519 -0.747776 0.287732 11469.9 
60 4.23456 -2.27486 -3.57163 0 2.17965 -1.38827 0.290833 3496.51 
64 4.69056 -2.51989 -3.9562 0 2.14754 -1.36787 -0.878484 4937.32 
68 4.79287 -2.57483 -4.04251 0 3.42398 -2.18087 -0.0587193 4750.95 
72 3.78151 -2.03145 -3.18951 0 1.92245 -1.22444 -0.303723 3634.86 
76 4.11671 -2.21153 -3.47223 0 2.06204 -1.31335 0.0249829 3761.44 
80 4.03999 -2.17028 -3.40756 0 1.26777 -0.807444 -0.5113 2113.66 
84 4.01445 -2.1566 -3.38599 0 1.13663 -0.723944 0.0108868 2242.48 
88 3.50071 -1.88061 -2.95267 0 0.516573 -0.329016 0.16387 1653.87 
92 3.5994 -1.93359 -3.03594 0 0.552831 -0.352098 0.347842 1541.52 
96 4.3137 -2.31734 -3.63839 0 0.846697 -0.539271 -0.0633851 2108.42 
100 4.37912 -2.35255 -3.69354 0 1.01872 -0.648862 -0.0438697 2042.3 
104 4.06351 -2.183 -3.42733 0 0.647619 -0.412493 0.0690354 1533.51 
108 4.64928 -2.49762 -3.92144 0 0.950432 -0.605343 -0.06983 1578.15 
112 4.11468 -2.21043 -3.47053 0 0.52136 -0.332061 -0.125842 1545.03 
116 4.95738 -2.66315 -4.1813 0 0.861377 -0.548627 0.0351562 1756.4 
120 3.99387 -3.99387 0 0 0 0.18221 0.155428 1289.41 
124 5.96991 -5.96991 0 0 0 0.323057 0.252248 1047.96 
128 5.93113 -5.93113 0 0 0 0.0283069 0.210465 1688.66 
132 6.98444 -6.98444 0 0 0 0.161797 0.020426 2005.82 
