ITEM: TIMESTEP
14000
ITEM: NUMBER OF CELLS
1036
ITEM: BOX BOUNDS oo ao pp
-10 10
0 10
-0.5 0.5
ITEM: CELLS id proc f_avg_n f_avg_nrho f_avg_temp_tra f_avg_temp_rot f_avg_temp_vib f_avg_vel[1] f_avg_vel[2] f_avg_vel[3] f_avg_nrho_CO2 f_avg_nrho_O2 f_avg_nrho_C2 f_avg_nrho_CO f_avg_nrho_O f_avg_nrho_C 
1 0 38 5.89176e+17 209.16 142.012 134.701 7462.08 7.21623 -2.08878 5.88556e+17 0 0 0 6.20186e+14 0 
5 0 39.32 6.09643e+17 607.317 191.731 143.22 7439.5 36.0616 -3.21766 6.03441e+17 0 0 2.63579e+15 3.56607e+15 0 
9 0 42.75 6.62824e+17 1922.2 227.863 149.295 7350.2 28.9643 1.55968 6.39256e+17 1.55046e+14 0 8.21746e+15 1.51946e+16 0 
37 0 37.63 5.8344e+17 441.717 160.512 135.985 7459.99 0.599941 2.73541 5.81579e+17 0 0 1.24037e+15 6.20186e+14 0 
41 0 37.68 5.84215e+17 786.33 153.674 138.712 7430.87 -3.48161 1.24607 5.78943e+17 0 0 2.63579e+15 2.63579e+15 0 
45 0 38.52 5.97239e+17 2493.99 242.036 147.237 7312.66 2.30291 -2.60804 5.76928e+17 1.55046e+14 0 6.97709e+15 1.31789e+16 0 
73 0 37.14 5.75842e+17 477.078 142.152 138.109 7456.84 1.32995 2.9848 5.74447e+17 0 0 9.30279e+14 4.65139e+14 0 
77 0 37.42 5.80184e+17 547.835 140.224 136.319 7448.36 -2.22668 1.1934 5.76463e+17 0 0 9.30279e+14 2.79084e+15 0 
81 0 38.66 5.9941e+17 2724.38 256.074 162.788 7305.08 10.2168 -8.92487 5.76153e+17 0 0 8.37251e+15 1.48845e+16 0 
109 0 37.44 5.80494e+17 356.868 140.919 139.509 7461.64 -2.86132 0.457127 5.79098e+17 0 0 4.65139e+14 9.30279e+14 0 
113 0 37.58 5.82665e+17 687.955 153.09 138.059 7438.17 7.04886 2.57206 5.77083e+17 0 0 1.70551e+15 3.87616e+15 0 
117 0 38.66 5.9941e+17 1779.63 271.695 147.921 7360.14 6.86734 -0.839559 5.78323e+17 0 0 6.51195e+15 1.44193e+16 1.55046e+14 
145 0 37.27 5.77858e+17 311.055 140.379 138.499 7464.28 1.98772 3.85654 5.76618e+17 0 0 6.20186e+14 6.20186e+14 0 
149 0 37.23 5.77238e+17 452.497 178.21 135.609 7451.4 -0.595861 -6.00463 5.74447e+17 0 0 1.08533e+15 1.70551e+15 0 
153 0 39.13 6.06697e+17 2131.73 235.457 152.543 7335.99 10.8501 -5.99623 5.87316e+17 0 0 7.28718e+15 1.20936e+16 0 
181 0 37.56 5.82354e+17 323.207 136.678 135.749 7460.7 -6.23891 -2.14937 5.80959e+17 0 0 1.55046e+14 1.24037e+15 0 
185 0 37.33 5.78788e+17 530.846 169.314 139.736 7448.17 -0.814977 -0.163154 5.75842e+17 0 0 7.75232e+14 2.0156e+15 1.55046e+14 
189 0 38.86 6.0251e+17 1807.54 244.669 154.296 7360.33 8.97077 -2.06844 5.87316e+17 0 0 4.3413e+15 1.08533e+16 0 
217 0 37.21 5.76928e+17 237.488 153.769 135.478 7462.84 -1.08035 -0.298358 5.76308e+17 0 0 3.10093e+14 3.10093e+14 0 
221 0 37.04 5.74292e+17 695.455 192.535 137.816 7435.42 1.66894 3.18532 5.70106e+17 0 0 9.30279e+14 3.10093e+15 1.55046e+14 
225 0 38.08 5.90417e+17 1675.51 254.52 157.406 7368.62 13.3692 -2.4076 5.76773e+17 0 0 4.49635e+15 9.14774e+15 0 
253 0 37.47 5.80959e+17 374.66 135.036 136.595 7455.14 1.5699 2.86609 5.79564e+17 0 0 6.20186e+14 7.75232e+14 0 
257 0 37.3 5.78323e+17 619.773 173.061 136.302 7444.48 3.72401 -2.25308 5.74757e+17 0 0 7.75232e+14 2.79084e+15 0 
261 0 37.78 5.85765e+17 1550.47 247.969 151.802 7384.18 19.6097 -0.0168658 5.73207e+17 0 0 4.65139e+15 7.90737e+15 0 
289 0 37.29 5.78168e+17 190.615 141.477 139.049 7469.33 -0.955653 1.24701 5.77703e+17 0 0 0 4.65139e+14 0 
293 0 37.66 5.83905e+17 492.954 144.694 138.053 7453.22 3.56884 -5.8935 5.79409e+17 0 0 7.75232e+14 3.72111e+15 0 
297 0 37.91 5.87781e+17 1262.21 229.097 153.776 7398.3 11.2181 -1.57366 5.76928e+17 0 0 3.87616e+15 6.97709e+15 0 
325 0 37.34 5.78943e+17 274.122 139.807 136.359 7465.24 1.55543 5.29023 5.78013e+17 0 0 3.10093e+14 6.20186e+14 0 
329 0 37.99 5.89021e+17 537.858 149.102 136.737 7447.7 -0.509602 -2.4793 5.853e+17 0 0 1.24037e+15 2.48074e+15 0 
333 0 37.35 5.79098e+17 1027.24 218.289 149.798 7409.56 11.5307 0.745444 5.70106e+17 0 0 3.41102e+15 5.58167e+15 0 
361 0 37.15 5.75998e+17 197.016 135.008 136.499 7470.84 -2.32555 2.65466 5.75532e+17 0 0 1.55046e+14 3.10093e+14 0 
365 0 37.53 5.81889e+17 358.632 153.543 138.435 7455.41 3.43716 3.56717 5.79564e+17 0 0 9.30279e+14 1.39542e+15 0 
369 0 38.43 5.95843e+17 1024.49 204.304 161.62 7415.38 10.2707 -1.74982 5.86541e+17 0 0 3.41102e+15 5.89176e+15 0 
397 0 37.69 5.8437e+17 201.68 135.873 135.885 7466.65 -1.87004 -6.54221 5.8375e+17 0 0 0 6.20186e+14 0 
401 0 38 5.89176e+17 379.636 158.846 134.87 7456.4 2.47009 1.52862 5.87316e+17 0 0 1.08533e+15 7.75232e+14 0 
405 0 37.68 5.84215e+17 1118.96 200.537 143.195 7410.78 15.3914 -4.7152 5.75222e+17 0 0 2.94588e+15 6.04681e+15 0 
433 0 37.47 5.80959e+17 311.234 139.039 136.037 7461.02 0.899357 -3.08748 5.79874e+17 0 0 3.10093e+14 7.75232e+14 0 
437 0 37.57 5.82509e+17 475.676 163.768 137.322 7451.09 0.246623 1.71697 5.78478e+17 0 0 1.08533e+15 2.94588e+15 0 
441 0 38.08 5.90417e+17 921.983 166.424 138.15 7425.19 12.1697 -0.619445 5.8344e+17 0 0 1.86056e+15 5.11653e+15 0 
469 0 38.11 5.90882e+17 250.551 140.66 137.349 7466.38 2.64752 -3.16232 5.90262e+17 0 0 0 6.20186e+14 0 
473 0 37.53 5.81889e+17 355.179 152.91 137.141 7459.25 1.08806 -0.636885 5.80184e+17 0 0 3.10093e+14 1.39542e+15 0 
477 0 38.52 5.97239e+17 651.291 185.547 141.677 7438.75 8.21857 0.87063 5.90417e+17 1.55046e+14 0 2.63579e+15 4.03121e+15 0 
505 0 37.56 5.82354e+17 243.13 160.077 137.136 7464.39 1.89543 -3.83035 5.81269e+17 0 0 6.20186e+14 4.65139e+14 0 
509 0 37.49 5.81269e+17 325.036 138.857 137.409 7458.94 0.68116 -3.30156 5.79874e+17 0 0 6.20186e+14 7.75232e+14 0 
513 0 37.76 5.85455e+17 502.08 171.023 141.946 7444.96 5.09746 0.392385 5.80959e+17 0 0 1.55046e+15 2.94588e+15 0 
541 0 36.83 5.71036e+17 315.17 139.868 135.276 7463.82 1.87937 -0.0202492 5.69486e+17 0 0 1.55046e+14 1.39542e+15 0 
545 0 37.7 5.84525e+17 324.598 146.819 138.65 7460.52 0.842478 -0.0644118 5.8313e+17 0 0 3.10093e+14 1.08533e+15 0 
549 0 38.79 6.01425e+17 576.651 182.373 146.85 7441.79 14.3948 0.166646 5.96619e+17 0 0 2.0156e+15 2.63579e+15 1.55046e+14 
577 0 36.96 5.73052e+17 262.901 136.415 135.807 7469.12 1.57698 -4.29388 5.72742e+17 0 0 0 3.10093e+14 0 
581 0 37.14 5.75842e+17 279.204 147.152 142.196 7466.24 1.20955 6.10644 5.74292e+17 0 0 7.75232e+14 7.75232e+14 0 
585 0 37.25 5.77548e+17 246.084 163.317 135.963 7465.32 2.40253 -2.16441 5.76308e+17 0 0 3.10093e+14 9.30279e+14 0 
613 0 37.64 5.83595e+17 239.759 139.201 138.464 7463.92 0.758748 -0.617858 5.82975e+17 0 0 3.10093e+14 3.10093e+14 0 
617 0 37.21 5.76928e+17 270.236 139.839 137.918 7465.55 6.2489 -2.93115 5.76153e+17 0 0 1.55046e+14 6.20186e+14 0 
621 0 37.46 5.80804e+17 465.028 140.445 137.336 7450.18 6.37422 -0.903087 5.78788e+17 0 0 7.75232e+14 1.24037e+15 0 
2 0 38.39 5.95223e+17 426.094 140.536 137.541 7451.63 12.1695 -7.18258 5.92432e+17 0 0 1.08533e+15 1.70551e+15 0 
6 0 40.73 6.31504e+17 830.758 155.075 141.008 7438.36 31.8818 2.24673 6.23907e+17 0 0 1.70551e+15 5.89176e+15 0 
38 0 37.73 5.8499e+17 396.949 149.9 137.14 7454.77 -2.79386 -2.94905 5.8313e+17 0 0 7.75232e+14 1.08533e+15 0 
42 0 37.32 5.78633e+17 905.693 146.453 141.561 7424.54 2.37217 -0.71262 5.73672e+17 0 0 1.86056e+15 3.10093e+15 0 
74 0 37.88 5.87316e+17 333.556 146.189 141.209 7463.96 2.46329 2.28004 5.86076e+17 0 0 7.75232e+14 4.65139e+14 0 
78 0 38.06 5.90107e+17 807.58 155.468 139.112 7431.11 0.0924556 0.0674749 5.8282e+17 0 0 2.17065e+15 5.11653e+15 0 
110 0 37.98 5.88866e+17 473.879 151.551 139.18 7452.14 -0.494257 2.47383 5.86231e+17 0 0 9.30279e+14 1.70551e+15 0 
114 0 38.03 5.89642e+17 824.851 172.864 143.847 7429.73 6.01948 7.81287 5.80959e+17 0 0 3.25598e+15 5.42663e+15 0 
146 0 37.59 5.8282e+17 412.925 139.887 136.275 7459.55 -0.877894 1.12709 5.81114e+17 0 0 6.20186e+14 1.08533e+15 0 
150 0 38.13 5.91192e+17 610.745 157.232 144.358 7441.18 -0.905901 2.67817 5.85455e+17 0 0 1.55046e+15 4.18625e+15 0 
182 0 37.53 5.81889e+17 262.773 146.244 137.108 7461.02 1.74668 2.04537 5.80649e+17 0 0 6.20186e+14 6.20186e+14 0 
186 0 38.65 5.99254e+17 1052.2 145.768 139.724 7418.2 4.00979 4.0652 5.91502e+17 0 0 2.3257e+15 5.42663e+15 0 
218 0 37.65 5.8375e+17 216.325 141.42 137.357 7464.85 1.32361 -1.31272 5.82509e+17 0 0 1.55046e+14 1.08533e+15 0 
222 0 38.06 5.90107e+17 678.511 148.802 140.745 7437.8 1.50443 2.30203 5.84835e+17 0 0 1.24037e+15 4.03121e+15 0 
254 0 37.88 5.87316e+17 246.657 143.768 132.73 7470.19 1.01648 -0.665742 5.86386e+17 0 0 3.10093e+14 6.20186e+14 0 
258 0 37.91 5.87781e+17 522.211 154.69 139.896 7450.95 1.88063 5.21356 5.8375e+17 0 0 1.86056e+15 2.17065e+15 0 
290 0 37.98 5.88866e+17 351.113 137.195 139.483 7457.45 4.73769 -3.62385 5.86851e+17 0 0 6.20186e+14 1.39542e+15 0 
294 0 38.42 5.95688e+17 745.579 180.855 139.588 7430.41 7.41589 0.565912 5.90727e+17 0 0 1.39542e+15 3.56607e+15 0 
326 0 37.72 5.84835e+17 255.5 134.923 136.797 7468.06 1.30278 4.308 5.83595e+17 0 0 3.10093e+14 9.30279e+14 0 
330 0 37.78 5.85765e+17 742.099 157.829 141.217 7426.99 2.05208 -0.697067 5.80959e+17 0 0 2.17065e+15 2.63579e+15 0 
362 0 37.8 5.86076e+17 219.831 143.389 137.447 7466.33 -3.28912 2.39363 5.85455e+17 0 0 3.10093e+14 3.10093e+14 0 
366 0 37.3 5.78323e+17 496.245 168.494 138.142 7449.77 9.98291 -0.122542 5.75377e+17 0 0 1.39542e+15 1.55046e+15 0 
398 0 37.84 5.86696e+17 288.618 146.663 136.478 7460.13 7.0949 1.05033 5.8499e+17 0 0 7.75232e+14 9.30279e+14 0 
402 0 38.02 5.89487e+17 526.802 212.865 137.411 7448.21 2.84426 1.16641 5.85455e+17 0 0 1.70551e+15 2.3257e+15 0 
434 0 37.03 5.74137e+17 280.026 139.209 136.509 7470.19 -0.261921 1.58535 5.73207e+17 0 0 0 9.30279e+14 0 
438 0 37.83 5.86541e+17 489.59 165.529 139.293 7448.59 2.87781 4.26871 5.8437e+17 0 0 7.75232e+14 1.39542e+15 0 
470 0 37.03 5.74137e+17 166.968 134.136 135.316 7470.44 2.91477 3.99202 5.73982e+17 0 0 1.55046e+14 0 0 
474 0 37.54 5.82044e+17 484.435 152.974 139.527 7454.15 2.0125 -1.80592 5.80029e+17 0 0 4.65139e+14 1.55046e+15 0 
506 0 37.24 5.77393e+17 266.812 140.899 138.476 7464.45 1.44315 -2.65035 5.76308e+17 0 0 1.55046e+14 9.30279e+14 0 
510 0 37.4 5.79874e+17 418.62 171.206 140.864 7456.16 3.66728 -2.42541 5.76928e+17 1.55046e+14 0 6.20186e+14 2.17065e+15 0 
542 0 38.02 5.89487e+17 312.378 136.701 134.276 7464.49 3.09597 2.10152 5.87936e+17 0 0 1.55046e+14 1.39542e+15 0 
546 0 37.86 5.87006e+17 310.206 152.578 139.682 7461.94 -2.03132 -1.56616 5.85455e+17 0 0 6.20186e+14 9.30279e+14 0 
578 0 37.98 5.88866e+17 180.749 137.495 136.196 7469.98 5.02856 -1.40804 5.88556e+17 0 0 1.55046e+14 1.55046e+14 0 
582 0 37.34 5.78943e+17 205.391 137.438 137.435 7468.31 -0.882112 4.79887 5.78168e+17 0 0 0 7.75232e+14 0 
614 0 37.46 5.80804e+17 299.157 142.764 136.138 7460.53 0.244349 0.517754 5.79874e+17 0 0 3.10093e+14 6.20186e+14 0 
618 0 37.61 5.8313e+17 232.109 136.828 135.513 7468.58 2.68095 3.61494 5.82509e+17 0 0 4.65139e+14 1.55046e+14 0 
3 0 38.48 5.96619e+17 255.414 139.248 137.151 7467.97 13.6523 -0.0338335 5.94293e+17 0 0 4.65139e+14 1.86056e+15 0 
7 0 42.23 6.54761e+17 913.51 176.385 143.387 7414.2 30.3506 0.525402 6.42978e+17 0 0 4.80644e+15 6.97709e+15 0 
39 0 37.81 5.86231e+17 468.175 148.394 139.456 7453.15 1.79808 -2.00196 5.84525e+17 0 0 1.08533e+15 6.20186e+14 0 
43 0 38.27 5.93363e+17 1267.93 201.97 144.971 7403.49 1.33314 2.89393 5.83285e+17 0 0 4.18625e+15 5.73672e+15 1.55046e+14 
75 0 37.37 5.79409e+17 451.094 145.809 138.782 7452.29 2.27702 -4.52699 5.77548e+17 0 0 1.08533e+15 7.75232e+14 0 
79 0 37.82 5.86386e+17 852.137 148.427 144.171 7427.03 2.8951 -2.43216 5.79253e+17 0 0 1.70551e+15 5.42663e+15 0 
111 0 37.42 5.80184e+17 356.962 150.459 135.365 7463.09 4.35795 -1.73694 5.78323e+17 0 0 6.20186e+14 1.24037e+15 0 
115 0 38.12 5.91037e+17 1156.82 189.989 148.892 7403.82 7.55789 -1.46714 5.79409e+17 1.55046e+14 0 3.56607e+15 7.90737e+15 0 
147 0 37.71 5.8468e+17 391.188 145.667 137.248 7457.1 -1.34072 -4.85206 5.82199e+17 0 0 6.20186e+14 1.86056e+15 0 
151 0 38.02 5.89487e+17 1071.22 173.619 142.171 7420.79 7.69732 0.718106 5.81734e+17 0 0 2.17065e+15 5.58167e+15 0 
183 0 37.64 5.83595e+17 401.908 142.559 138.74 7458.63 -1.24747 0.781346 5.81114e+17 0 0 1.24037e+15 1.24037e+15 0 
187 0 37.77 5.8561e+17 1132.66 158.144 146.819 7410.44 -1.37476 -1.63099 5.78943e+17 0 0 2.3257e+15 4.3413e+15 0 
219 0 37.04 5.74292e+17 450.212 167.446 138.555 7451.02 4.71987 -7.00281 5.70881e+17 0 0 9.30279e+14 2.48074e+15 0 
223 0 37.25 5.77548e+17 996.515 176.112 141.67 7408.3 4.41931 -0.717277 5.68865e+17 0 0 3.41102e+15 5.11653e+15 1.55046e+14 
255 0 37.14 5.75842e+17 477.568 137.862 137.968 7456.21 2.69734 4.85661 5.73207e+17 0 0 4.65139e+14 2.17065e+15 0 
259 0 37.95 5.88401e+17 826.622 144.075 137.658 7423.59 15.5094 4.61429 5.82509e+17 0 0 1.55046e+15 4.3413e+15 0 
291 0 37.36 5.79253e+17 348.099 140.066 135.617 7458.2 -1.71453 -7.20758 5.76773e+17 0 0 6.20186e+14 1.86056e+15 0 
295 0 36.98 5.73362e+17 988.573 180.996 152.083 7418.03 5.00209 0.656059 5.6747e+17 0 0 2.17065e+15 3.72111e+15 0 
327 0 37.29 5.78168e+17 402.811 145.097 138.712 7459.16 1.81796 -1.22208 5.76153e+17 0 0 6.20186e+14 1.39542e+15 0 
331 0 37.45 5.80649e+17 510.203 151.708 141.937 7453.14 3.08825 1.07419 5.76153e+17 0 0 1.55046e+15 2.94588e+15 0 
363 0 37.73 5.8499e+17 243 132.653 137.078 7468.29 -4.26316 -5.78394 5.83905e+17 0 0 1.55046e+14 9.30279e+14 0 
367 0 38.11 5.90882e+17 613.594 174.033 139.565 7444.72 2.21444 1.42843 5.86231e+17 0 0 1.24037e+15 3.41102e+15 0 
399 0 37.66 5.83905e+17 431.513 168.474 137.67 7455.65 2.36344 0.21214 5.82044e+17 0 0 6.20186e+14 1.24037e+15 0 
403 0 37.39 5.79719e+17 632.62 150.774 143.781 7445.03 4.404 -3.26463 5.75687e+17 0 0 1.08533e+15 2.94588e+15 0 
435 0 37.7 5.84525e+17 214.318 142.04 136.551 7468.32 2.63718 -1.35028 5.8375e+17 0 0 1.55046e+14 6.20186e+14 0 
439 0 38.44 5.95999e+17 661.812 165.459 140.57 7439.86 2.36183 -3.57585 5.92587e+17 0 0 1.39542e+15 2.0156e+15 0 
471 0 37.61 5.8313e+17 288.347 138.857 135.519 7465.87 3.36588 1.63023 5.81734e+17 0 0 4.65139e+14 9.30279e+14 0 
475 0 37.78 5.85765e+17 757.037 156.282 139.657 7433.11 14.5348 -5.8075 5.80184e+17 0 0 1.86056e+15 3.72111e+15 0 
507 0 37.42 5.80184e+17 289.147 167.404 140.308 7459.15 3.2626 -0.046109 5.79098e+17 0 0 3.10093e+14 7.75232e+14 0 
511 0 38.31 5.93983e+17 413.911 171.812 138.715 7453.35 4.84109 -4.54646 5.91037e+17 0 0 1.24037e+15 1.70551e+15 0 
543 0 37.24 5.77393e+17 185.383 137.564 136.465 7468.47 1.10015 -1.63594 5.76463e+17 0 0 1.55046e+14 7.75232e+14 0 
547 0 37.09 5.75067e+17 330.059 154.078 137.872 7458.76 0.627155 0.394075 5.72586e+17 0 0 1.08533e+15 1.39542e+15 0 
579 0 37.76 5.85455e+17 296.438 138.99 137.099 7466.51 1.64572 -3.37045 5.84525e+17 0 0 1.55046e+14 7.75232e+14 0 
583 0 37.18 5.76463e+17 331.904 140.493 138.223 7461.9 -0.332746 -6.83345 5.74757e+17 0 0 4.65139e+14 1.24037e+15 0 
615 0 37.74 5.85145e+17 175.408 141.408 138.782 7467.83 1.28583 1.54667 5.8468e+17 0 0 0 3.10093e+14 1.55046e+14 
619 0 38.02 5.89487e+17 388.859 142.425 138.299 7457.49 4.69124 0.107502 5.87471e+17 0 0 4.65139e+14 1.55046e+15 0 
4 0 40.89 6.33985e+17 633.536 151.45 142.377 7444.17 20.3627 0.822173 6.29644e+17 0 0 1.55046e+15 2.79084e+15 0 
8 0 42.63 6.60963e+17 1706.87 205.982 157.828 7368.49 32.5314 -0.72878 6.42202e+17 0 0 4.49635e+15 1.42643e+16 0 
40 0 37.27 5.77858e+17 492.081 167.635 137.738 7449.35 1.89157 -3.17391 5.75067e+17 0 0 9.30279e+14 1.86056e+15 0 
44 0 38.74 6.0065e+17 1683.53 205.932 150.93 7371.8 1.88702 -2.4668 5.85455e+17 0 0 6.51195e+15 8.6826e+15 0 
76 0 38.56 5.97859e+17 702.52 161.267 142.507 7437.5 -3.53816 -0.48612 5.91192e+17 0 0 2.94588e+15 3.72111e+15 0 
80 0 38.51 5.97084e+17 1742.04 184.126 144.953 7373.15 0.992685 -0.00884624 5.82044e+17 0 0 5.42663e+15 9.45783e+15 1.55046e+14 
112 0 37.43 5.80339e+17 696.763 146.375 138.748 7435.06 -0.696025 0.665868 5.76463e+17 0 0 1.39542e+15 2.48074e+15 0 
116 0 38.99 6.04526e+17 1581.98 210.504 147.645 7381.37 5.62562 2.17497 5.91657e+17 0 0 4.49635e+15 8.37251e+15 0 
148 0 38.07 5.90262e+17 418.95 156.14 138.146 7452.99 3.1069 0.618193 5.87006e+17 0 0 7.75232e+14 2.48074e+15 0 
152 0 37.59 5.8282e+17 1289.45 191.274 146.619 7406.24 7.69145 0.14382 5.73362e+17 0 0 3.10093e+15 6.3569e+15 0 
184 0 38.02 5.89487e+17 432.018 154.136 139.042 7457.78 0.523744 -0.582609 5.86851e+17 0 0 9.30279e+14 1.70551e+15 0 
188 0 38.57 5.98014e+17 1707.12 205.491 148.22 7368.17 8.22623 3.3954 5.84215e+17 0 0 5.42663e+15 8.37251e+15 0 
220 0 38.45 5.96154e+17 492.593 160.584 138.598 7451.41 -4.32415 2.18416 5.93208e+17 0 0 1.08533e+15 1.86056e+15 0 
224 0 38 5.89176e+17 1275.28 227.89 148.173 7392.39 7.89988 -0.787479 5.77238e+17 0 0 3.56607e+15 8.21746e+15 1.55046e+14 
256 0 38.56 5.97859e+17 460.916 153.401 136.964 7450.55 2.59991 1.52462 5.95999e+17 0 0 6.20186e+14 1.24037e+15 0 
260 0 38.4 5.95378e+17 1382.62 215.303 141.372 7393.83 4.31631 2.27707 5.853e+17 0 0 3.10093e+15 6.97709e+15 0 
292 0 37.46 5.80804e+17 502.296 148.251 139.722 7452.09 -0.410504 1.86023 5.78013e+17 0 0 9.30279e+14 1.86056e+15 0 
296 0 38.12 5.91037e+17 1023.2 214.413 149.774 7410.25 9.07668 -5.7654 5.8437e+17 0 0 2.79084e+15 3.56607e+15 3.10093e+14 
328 0 37.36 5.79253e+17 302.334 148.086 138.699 7466.31 3.34837 3.26324 5.77703e+17 0 0 1.55046e+14 1.39542e+15 0 
332 0 38.29 5.93673e+17 898.782 188.587 138.482 7423.91 8.46819 3.40679 5.86851e+17 0 0 1.86056e+15 4.96149e+15 0 
364 0 37.63 5.8344e+17 500.897 148.025 141.151 7455.7 5.44855 -1.04647 5.81579e+17 0 0 9.30279e+14 9.30279e+14 0 
368 0 38.09 5.90572e+17 980.657 183.005 148.374 7415.68 6.53752 3.81848 5.82509e+17 0 0 3.41102e+15 4.65139e+15 0 
400 0 37.14 5.75842e+17 227.149 139.945 137.104 7466.15 -1.09955 1.41605 5.75067e+17 0 0 1.55046e+14 6.20186e+14 0 
404 0 38.51 5.97084e+17 680.944 199.976 135.633 7429.95 12.8273 0.606048 5.93518e+17 0 0 1.08533e+15 2.48074e+15 0 
436 0 37.69 5.8437e+17 338.564 157.964 137.969 7461.58 4.58433 2.77683 5.82354e+17 0 0 1.08533e+15 9.30279e+14 0 
440 0 37.38 5.79564e+17 864.671 156.33 142.861 7431.13 7.25739 3.3236 5.74912e+17 0 0 1.86056e+15 2.79084e+15 0 
472 0 38.2 5.92277e+17 471.049 150.589 138.368 7455.59 2.41325 2.27347 5.89176e+17 0 0 7.75232e+14 2.3257e+15 0 
476 0 37.25 5.77548e+17 655.274 163.211 137.923 7443.09 6.30046 4.05348 5.72897e+17 0 0 1.55046e+15 3.10093e+15 0 
508 0 37.13 5.75687e+17 417.007 136.063 137.617 7458.4 -2.19582 -0.865304 5.73982e+17 0 0 4.65139e+14 1.24037e+15 0 
512 0 37.13 5.75687e+17 412.316 189.216 142.926 7454.41 5.15792 -3.09377 5.73052e+17 0 0 6.20186e+14 2.0156e+15 0 
544 0 37.46 5.80804e+17 318.835 166.177 138.975 7460.32 0.701849 2.36232 5.78943e+17 0 0 7.75232e+14 1.08533e+15 0 
548 0 37.2 5.76773e+17 553.766 153.858 137.284 7445.27 11.4672 2.04015 5.72431e+17 0 0 1.86056e+15 2.48074e+15 0 
580 0 37.87 5.87161e+17 309.847 137.84 136.273 7458.41 1.3656 4.82549 5.86231e+17 0 0 1.55046e+14 7.75232e+14 0 
584 0 38.13 5.91192e+17 336.992 144.145 136.169 7461.36 7.6565 1.40206 5.89487e+17 0 0 4.65139e+14 1.24037e+15 0 
616 0 37.53 5.81889e+17 239.141 139.677 135.825 7467.73 0.444164 -3.24832 5.81579e+17 0 0 0 3.10093e+14 0 
620 0 37.85 5.86851e+17 346.662 162.893 136.409 7455.1 4.70903 -0.387097 5.85145e+17 0 0 6.20186e+14 1.08533e+15 0 
10 0 44.59 6.91352e+17 3290.59 326.606 161.243 7258.85 37.9284 -4.36138 6.5166e+17 0 0 1.45744e+16 2.51175e+16 0 
46 0 39.17 6.07317e+17 3152.27 285.393 156.779 7267.14 7.73636 -0.651657 5.77548e+17 0 0 9.92297e+15 1.98459e+16 0 
82 0 39.54 6.13054e+17 3289.15 292.63 152.011 7262.89 14.8811 -5.21341 5.8592e+17 1.55046e+14 0 8.52755e+15 1.82955e+16 1.55046e+14 
118 0 40.41 6.26543e+17 3442.85 317.098 168.665 7255.4 18.4197 -4.58702 5.94913e+17 0 0 1.31789e+16 1.84505e+16 0 
154 0 38.89 6.02976e+17 3329.86 296.768 157.482 7258.25 25.6943 0.956657 5.75687e+17 1.55046e+14 0 1.03881e+16 1.6745e+16 0 
190 0 38.78 6.0127e+17 2990.89 256.777 156.427 7289.4 19.0038 3.44262 5.74137e+17 0 0 9.76793e+15 1.73652e+16 0 
226 0 38.66 5.9941e+17 2103.29 263.773 155.99 7341.87 19.3254 -1.19434 5.79719e+17 0 0 7.75232e+15 1.17835e+16 1.55046e+14 
262 0 39.83 6.1755e+17 1986.61 243.434 150.672 7347.04 28.7454 -0.118957 5.98324e+17 0 0 7.13214e+15 1.20936e+16 0 
298 0 37.82 5.86386e+17 1853.13 216.63 151.887 7359.49 22.6341 0.310188 5.73982e+17 0 0 5.58167e+15 6.82204e+15 0 
334 0 38.51 5.97084e+17 1438.65 197.303 152.067 7388.58 13.8605 -1.18646 5.83595e+17 0 0 4.18625e+15 9.14774e+15 1.55046e+14 
370 0 37.83 5.86541e+17 1444.44 195.588 151.077 7392.53 22.7807 -1.43422 5.74912e+17 0 0 3.72111e+15 7.90737e+15 0 
406 0 38.41 5.95533e+17 1022.22 207.455 162.545 7409.31 10.4332 2.13086 5.8561e+17 0 0 3.56607e+15 6.20186e+15 1.55046e+14 
442 0 37.81 5.86231e+17 916.682 173.041 142.069 7418.72 10.3737 0.442661 5.78943e+17 0 0 2.0156e+15 5.27158e+15 0 
478 0 38.05 5.89952e+17 758.142 161.157 139.641 7433.05 10.0928 -0.911656 5.84835e+17 1.55046e+14 0 2.48074e+15 2.48074e+15 0 
514 0 36.93 5.72586e+17 689.325 173.697 139.59 7432.83 4.07469 0.823209 5.6685e+17 1.55046e+14 0 1.55046e+15 4.03121e+15 0 
550 0 38.07 5.90262e+17 679.677 198.296 148.811 7437.35 5.1012 4.21972 5.8406e+17 0 0 2.63579e+15 3.56607e+15 0 
586 0 38.11 5.90882e+17 685.561 167.799 140.07 7438.65 12.4346 2.0756 5.86076e+17 0 0 1.39542e+15 3.41102e+15 0 
622 0 36.66 5.684e+17 394.532 154.704 136.286 7453.82 6.69476 -0.641266 5.65764e+17 0 0 9.30279e+14 1.70551e+15 0 
11 0 46.64 7.23137e+17 5352.15 377.097 176.018 7105.59 37.5858 -2.54421 6.58637e+17 3.10093e+14 0 2.18615e+16 4.23277e+16 0 
47 0 40.93 6.34605e+17 5424.02 559.734 188.812 7097.35 5.15909 -3.9385 5.82044e+17 1.55046e+14 0 2.15515e+16 3.06992e+16 1.55046e+14 
83 0 41.45 6.42667e+17 5122.95 466.198 183.427 7123.89 13.8656 -2.46924 5.92898e+17 1.55046e+14 0 1.82955e+16 3.13194e+16 0 
119 0 39.95 6.19411e+17 4697.54 394.784 177.564 7159.21 32.3286 0.782766 5.75222e+17 3.10093e+14 0 1.72102e+16 2.60478e+16 6.20186e+14 
155 0 41.67 6.46079e+17 4653.69 409.884 185.383 7156.29 34.0353 -9.76929 5.9941e+17 0 0 1.59698e+16 3.02341e+16 4.65139e+14 
191 0 39.88 6.18325e+17 3547.53 388.38 180.526 7233.2 19.2012 3.08087 5.8592e+17 0 0 1.17835e+16 2.04661e+16 1.55046e+14 
227 0 39.2 6.07782e+17 3666.42 362.962 177.073 7224.24 39.0631 6.5681 5.74912e+17 0 0 1.31789e+16 1.93808e+16 3.10093e+14 
263 0 39.14 6.06852e+17 2701.67 251.669 160.486 7296.06 28.697 0.140845 5.84215e+17 0 0 7.13214e+15 1.55046e+16 0 
299 0 37.94 5.88246e+17 2539.65 292.183 158.117 7315.27 26.8438 -1.38537 5.64214e+17 1.55046e+14 0 8.06241e+15 1.55046e+16 3.10093e+14 
335 0 39.17 6.07317e+17 1995.63 218.531 149.181 7350.21 24.4712 -4.83307 5.88711e+17 0 0 6.82204e+15 1.17835e+16 0 
371 0 39.57 6.13519e+17 1924.72 243.666 163.946 7352.11 31.7264 1.4918 5.95533e+17 0 0 6.97709e+15 1.10083e+16 0 
407 0 38.18 5.91967e+17 1296.75 214.812 148.039 7391.28 20.6191 0.310255 5.8313e+17 0 0 3.56607e+15 5.11653e+15 1.55046e+14 
443 0 37.63 5.8344e+17 1169.36 186.558 149.335 7402.54 19.6195 0.159439 5.73207e+17 0 0 3.41102e+15 6.667e+15 1.55046e+14 
479 0 38.82 6.0189e+17 817.294 180.261 142.25 7422.73 14.7943 2.1399 5.94603e+17 0 0 2.63579e+15 4.65139e+15 0 
515 0 37.4 5.79874e+17 786.475 171.09 141.487 7429.54 7.73531 -3.27614 5.73672e+17 0 0 2.3257e+15 3.87616e+15 0 
551 0 37.11 5.75377e+17 861.836 198.302 143.974 7424.43 12.9781 -0.129242 5.67315e+17 0 0 2.17065e+15 5.89176e+15 0 
587 0 38.23 5.92743e+17 544.715 164.145 139.118 7444.97 10.6459 4.29725 5.89176e+17 0 0 1.08533e+15 2.48074e+15 0 
623 0 37.7 5.84525e+17 424.663 141.288 141.261 7456.94 10.3699 -5.00389 5.82975e+17 0 0 7.75232e+14 7.75232e+14 0 
12 0 48.36 7.49805e+17 7535.8 625.668 207.088 6929.67 47.1456 5.11814 6.53366e+17 3.10093e+14 0 4.23277e+16 5.38011e+16 0 
48 0 42.15 6.53521e+17 7570.54 519.244 223.615 6923.43 14.1485 0.444099 5.74137e+17 1.55046e+14 0 2.86836e+16 5.05451e+16 0 
84 0 42.05 6.5197e+17 7960.74 578.95 231.54 6894.46 37.5607 -1.79685 5.74912e+17 4.65139e+14 0 2.86836e+16 4.75993e+16 3.10093e+14 
120 0 42.28 6.55536e+17 7453.87 572.348 190.253 6942.87 43.2817 4.58666 5.83905e+17 1.55046e+14 0 2.62028e+16 4.51185e+16 1.55046e+14 
156 0 42.05 6.5197e+17 6585.56 532.786 223.29 6997.79 49.2 2.05889 5.86851e+17 0 0 2.31019e+16 4.20176e+16 0 
192 0 41.34 6.40962e+17 5442.01 453.499 201.076 7078.99 58.3853 7.30721 5.853e+17 1.55046e+14 0 1.96909e+16 3.58157e+16 0 
228 0 40.7 6.31039e+17 4763.36 447.849 184.391 7146.78 62.2151 0.86561 5.8437e+17 0 0 1.82955e+16 2.80634e+16 3.10093e+14 
264 0 40.4 6.26388e+17 3795.78 365.366 176.55 7222.82 50.0693 -4.53862 5.88401e+17 1.55046e+14 0 1.45744e+16 2.3257e+16 0 
300 0 40.81 6.32745e+17 3189.72 344.483 173.078 7258.85 46.2818 -5.90338 5.99565e+17 0 0 1.25588e+16 2.06212e+16 0 
336 0 39.36 6.10263e+17 2699.54 363.372 174.355 7287.22 33.9508 -0.0863301 5.85765e+17 1.55046e+14 0 9.76793e+15 1.45744e+16 0 
372 0 38.21 5.92432e+17 2114.27 322.79 165.726 7336.7 31.023 2.81558 5.71036e+17 0 0 9.76793e+15 1.14734e+16 1.55046e+14 
408 0 39.45 6.11658e+17 1933.49 258.24 154.947 7346.93 31.1192 -2.63285 5.93363e+17 1.55046e+14 0 6.20186e+15 1.19386e+16 0 
13 0 53.23 8.25312e+17 11067.6 1113.47 259.897 6598.82 60.9208 -13.7132 6.79413e+17 1.55046e+14 0 6.667e+16 7.89186e+16 1.55046e+14 
49 0 47.86 7.42052e+17 12430.1 892.844 271.609 6490.48 42.0749 -4.87241 6.07007e+17 1.55046e+14 0 5.70571e+16 7.78333e+16 0 
85 0 46.89 7.27013e+17 11099.5 871.092 289.141 6593.81 54.508 -17.2662 6.0189e+17 3.10093e+14 0 4.97699e+16 7.50425e+16 0 
121 0 45.85 7.10888e+17 10914.2 886.744 287.17 6623.88 86.2782 -4.21228 5.94758e+17 0 0 4.72892e+16 6.86856e+16 1.55046e+14 
157 0 44.53 6.90422e+17 9138.57 673.933 243.518 6784.09 77.1461 10.6302 5.94603e+17 0 0 3.64359e+16 5.92277e+16 1.55046e+14 
193 0 43.72 6.77863e+17 7840.02 683.793 221.842 6893.55 91.8473 -0.942232 5.98944e+17 1.55046e+14 0 3.08542e+16 4.79093e+16 0 
229 0 41.9 6.49645e+17 6926.8 567.704 209.519 6977.11 86.7511 -9.35201 5.81424e+17 1.55046e+14 0 2.55827e+16 4.20176e+16 4.65139e+14 
265 0 42.17 6.53831e+17 5116.37 475.669 193.71 7094.83 75.6892 5.81499 5.97394e+17 1.55046e+14 0 2.18615e+16 3.42653e+16 1.55046e+14 
301 0 39.91 6.1879e+17 4119.83 525.212 175.352 7183.77 64.3589 -6.73843 5.79253e+17 1.55046e+14 0 1.64349e+16 2.29469e+16 0 
337 0 39.01 6.04836e+17 3152.68 300.824 174.614 7267.06 57.8736 1.11157 5.78013e+17 0 0 9.61288e+15 1.70551e+16 1.55046e+14 
373 0 39.23 6.08247e+17 2819.52 317.781 159.752 7275.35 46.6585 -5.64793 5.82975e+17 0 0 9.76793e+15 1.55046e+16 0 
409 0 38.81 6.01735e+17 2267.86 343.252 165.407 7324.61 38.4391 2.45112 5.77703e+17 0 0 9.45783e+15 1.42643e+16 3.10093e+14 
445 0 39.33 6.09798e+17 2036.99 255.305 158.234 7341.7 32.4861 -12.1653 5.93208e+17 0 0 5.89176e+15 1.06982e+16 0 
481 0 38.51 5.97084e+17 1338.05 307.5 156.224 7386.06 34.5718 2.22822 5.8282e+17 1.55046e+14 0 4.80644e+15 9.14774e+15 1.55046e+14 
517 0 38.45 5.96154e+17 1174.22 224.886 160.894 7395.91 28.3591 -6.13683 5.84215e+17 1.55046e+14 0 6.20186e+15 5.58167e+15 0 
553 0 38.58 5.98169e+17 838.955 206.985 143.814 7423.86 17.1029 -0.296247 5.90572e+17 0 0 2.79084e+15 4.80644e+15 0 
589 0 37.71 5.8468e+17 722.936 200.585 147.475 7427.9 18.6988 -3.29526 5.77083e+17 0 0 3.87616e+15 3.72111e+15 0 
625 0 37.74 5.85145e+17 470.1 160.74 141.392 7450.68 6.80977 -2.64056 5.80959e+17 0 0 1.39542e+15 2.79084e+15 0 
444 0 38.07 5.90262e+17 1545.51 197.942 149.021 7380.64 20.1088 2.93018 5.79098e+17 0 0 3.87616e+15 7.28718e+15 0 
480 0 38.35 5.94603e+17 1307.39 203.513 148.402 7396.77 20.3642 -0.896725 5.83595e+17 0 0 4.18625e+15 6.667e+15 1.55046e+14 
516 0 37.48 5.81114e+17 875.577 184.672 150.124 7424.72 14.5741 -1.68871 5.72897e+17 1.55046e+14 0 3.10093e+15 4.96149e+15 0 
552 0 38.52 5.97239e+17 884.434 170.34 150.5 7426.53 11.0199 -1.95175 5.90417e+17 0 0 2.63579e+15 4.18625e+15 0 
588 0 37.39 5.79719e+17 875.329 208.483 148.278 7420.8 18.6703 2.75201 5.72742e+17 0 0 3.41102e+15 3.56607e+15 0 
624 0 38.61 5.98634e+17 542.82 148.355 137.561 7447.31 10.3635 4.8866 5.93518e+17 1.55046e+14 0 9.30279e+14 4.03121e+15 0 
14 0 61.37 9.5152e+17 16009.3 1536.25 393.214 6040.62 59.0728 -2.24725 7.09337e+17 0 0 1.01866e+17 1.39852e+17 4.65139e+14 
50 0 54.81 8.4981e+17 17057.7 1382.35 429.115 5861.8 59.2322 6.05538 6.10728e+17 6.20186e+14 0 9.45783e+16 1.43263e+17 6.20186e+14 
86 0 52.87 8.19731e+17 17159 1510.52 402.752 5890.67 96.8303 -11.4002 6.00805e+17 7.75232e+14 0 8.88416e+16 1.28378e+17 9.30279e+14 
122 0 50.8 7.87636e+17 14980.9 1273.53 355.125 6159.68 121.142 -1.46239 6.0158e+17 0 0 7.87636e+16 1.06517e+17 7.75232e+14 
158 0 49.2 7.62828e+17 13363.1 1101.5 325.876 6348.59 146.219 2.59082 6.04216e+17 4.65139e+14 0 6.44993e+16 9.30279e+16 6.20186e+14 
194 0 46.43 7.19881e+17 11415.5 979.447 269.294 6554.93 134.292 -8.83447 5.98944e+17 3.10093e+14 0 5.008e+16 7.03911e+16 1.55046e+14 
230 0 44.23 6.8577e+17 9690.44 797.36 260.327 6713.36 136.893 4.63381 5.87781e+17 3.10093e+14 0 3.89167e+16 5.86076e+16 1.55046e+14 
266 0 42.47 6.58482e+17 7309.3 648.614 239.936 6918.71 123.539 0.34303 5.82354e+17 1.55046e+14 0 3.11643e+16 4.46534e+16 1.55046e+14 
302 0 42.21 6.54451e+17 5691.43 535.687 212.218 7055.59 99.623 2.01585 5.95999e+17 0 0 2.27918e+16 3.56607e+16 0 
338 0 40.78 6.32279e+17 4653.11 488.413 185.033 7155.29 87.5945 -0.50892 5.91657e+17 1.55046e+14 0 1.75202e+16 2.29469e+16 0 
374 0 39.59 6.13829e+17 3492.73 413.735 175.593 7237.58 60.799 -1.272 5.80184e+17 0 0 1.36441e+16 2.0001e+16 0 
410 0 40.16 6.22666e+17 2775.37 387.425 183.089 7277.49 56.5725 -1.24255 5.94758e+17 0 0 1.17835e+16 1.59698e+16 1.55046e+14 
446 0 38.44 5.95999e+17 2246.22 253.837 163.569 7320.81 46.4194 -2.23222 5.74912e+17 0 0 7.44223e+15 1.36441e+16 0 
482 0 37.81 5.86231e+17 1790.12 225.58 148.249 7363.28 47.1998 -3.28493 5.6809e+17 0 0 7.44223e+15 1.06982e+16 0 
518 0 38.05 5.89952e+17 979.159 231.652 142.364 7412.59 23.5587 -5.52357 5.77858e+17 1.55046e+14 0 4.65139e+15 7.28718e+15 0 
554 0 37.15 5.75998e+17 914.991 177.181 142.047 7415.62 18.1986 -1.33804 5.67625e+17 0 0 3.41102e+15 4.96149e+15 0 
590 0 37.84 5.86696e+17 888.237 188.125 143.251 7424.25 21.3499 -1.36775 5.78788e+17 0 0 3.56607e+15 4.3413e+15 0 
626 0 38.73 6.00495e+17 728.549 169.32 144.26 7427.05 18.8159 -0.493879 5.93673e+17 0 0 2.3257e+15 4.49635e+15 0 