ITEM: TIMESTEP
17000
ITEM: NUMBER OF CELLS
1036
ITEM: BOX BOUNDS oo ao pp
-10 10
0 10
-0.5 0.5
ITEM: CELLS id proc f_avg_n f_avg_nrho f_avg_temp_tra f_avg_temp_rot f_avg_temp_vib f_avg_vel[1] f_avg_vel[2] f_avg_vel[3] f_avg_nrho_CO2 f_avg_nrho_O2 f_avg_nrho_C2 f_avg_nrho_CO f_avg_nrho_O f_avg_nrho_C 
1 0 37.765 5.85533e+17 254.594 141.505 136.09 7463 6.1082 -1.78675 5.84641e+17 0 0 7.75232e+13 8.13994e+14 0 
5 0 39.92 6.18945e+17 568.381 173.68 141.713 7441.52 28.8535 -1.7282 6.13868e+17 3.87616e+13 0 1.62799e+15 3.41102e+15 0 
9 0 42.92 6.65459e+17 1988.72 270.068 156.245 7345.87 35.249 3.87118 6.44412e+17 3.87616e+13 0 8.37251e+15 1.25975e+16 3.87616e+13 
37 0 37.5275 5.81851e+17 318.856 146.407 136.916 7464.29 0.439568 1.57066 5.80416e+17 0 0 5.03901e+14 9.30279e+14 0 
41 0 37.66 5.83905e+17 710.825 169.417 139.707 7437.48 -1.22908 2.8139 5.78905e+17 3.87616e+13 0 1.55046e+15 3.41102e+15 0 
45 0 38.57 5.98014e+17 2507.56 252.419 155.344 7314.63 2.92977 -2.94657 5.7561e+17 1.93808e+14 0 7.55851e+15 1.44968e+16 1.55046e+14 
73 0 37.2275 5.77199e+17 311.497 141.709 136.706 7465.33 -0.892835 1.61643 5.75998e+17 0 0 3.87616e+14 8.13994e+14 0 
77 0 37.6825 5.84254e+17 678.161 160.393 139.561 7439.8 1.53062 0.753817 5.79525e+17 0 0 1.24037e+15 3.48854e+15 0 
81 0 38.385 5.95146e+17 2225.58 232.658 164.111 7334.91 7.74615 -1.24986 5.74602e+17 3.87616e+13 0 7.1709e+15 1.3334e+16 0 
109 0 37.74 5.85145e+17 258.24 140.757 137.75 7466.6 1.06423 -0.198009 5.84254e+17 0 0 3.10093e+14 5.81424e+14 0 
113 0 37.655 5.83827e+17 668.611 153.798 140.359 7439.67 3.93613 -0.176274 5.78943e+17 0 0 1.5117e+15 3.37226e+15 0 
117 0 39.205 6.0786e+17 2103.6 258.836 151.735 7340.73 8.30373 2.42541 5.87432e+17 3.87616e+13 0 6.39567e+15 1.37991e+16 1.93808e+14 
145 0 37.4925 5.81308e+17 271.962 138.72 138.869 7465.25 -0.343575 3.07907 5.80378e+17 0 0 2.71331e+14 6.58947e+14 0 
149 0 37.8725 5.872e+17 600.055 172.335 140.349 7444.38 2.22948 -1.22845 5.81967e+17 0 0 1.55046e+15 3.64359e+15 3.87616e+13 
153 0 38.72 6.0034e+17 2111.51 274.513 159.236 7338.11 11.2284 2.82624 5.80455e+17 7.75232e+13 0 7.6748e+15 1.20936e+16 3.87616e+13 
181 0 37.4475 5.8061e+17 301.251 136.757 136.08 7463.73 1.86604 3.73453 5.79409e+17 0 0 1.55046e+14 1.04656e+15 0 
185 0 37.7375 5.85106e+17 646.129 159.873 142.036 7438.19 0.117469 1.4349 5.80533e+17 0 0 1.43418e+15 3.10093e+15 3.87616e+13 
189 0 38.5775 5.9813e+17 1905.36 237.468 153.948 7357.85 11.968 -3.23212 5.81075e+17 3.87616e+13 0 5.42663e+15 1.15897e+16 0 
217 0 37.185 5.7654e+17 204.717 140.555 137.367 7466.79 -0.268816 -1.19665 5.75998e+17 0 0 1.16285e+14 4.26378e+14 0 
221 0 37.4125 5.80067e+17 527.376 162.884 141.315 7448.24 0.859558 0.286113 5.7654e+17 0 0 1.16285e+15 2.3257e+15 3.87616e+13 
225 0 38.575 5.98092e+17 1819.1 245.347 154.084 7358.22 15.9375 3.04656 5.80881e+17 7.75232e+13 0 5.73672e+15 1.13959e+16 0 
253 0 37.475 5.81037e+17 258.359 140.877 137.705 7462.99 1.59936 0.103306 5.80223e+17 0 0 1.93808e+14 6.20186e+14 0 
257 0 37.6925 5.84409e+17 592.906 166.317 137.742 7445.29 2.56712 0.61526 5.80339e+17 0 0 8.13994e+14 3.21721e+15 3.87616e+13 
261 0 38.3325 5.94332e+17 1469.26 236.357 151.232 7386.89 14.1329 -2.46735 5.80571e+17 3.87616e+13 0 4.76768e+15 8.95393e+15 0 
289 0 37.3575 5.79215e+17 220.464 139.85 136.881 7469.84 -1.52351 1.04642 5.78401e+17 0 0 1.93808e+14 6.20186e+14 0 
293 0 37.605 5.83052e+17 565.143 151.505 139.804 7448.16 2.49863 -0.874619 5.79098e+17 0 0 1.12409e+15 2.8296e+15 0 
297 0 37.79 5.8592e+17 1243.35 217.573 150.322 7395.66 11.6439 -0.171719 5.73672e+17 7.75232e+13 0 4.26378e+15 7.90737e+15 0 
325 0 37.295 5.78246e+17 255.983 138.301 135.262 7467.03 0.962167 1.87976 5.77315e+17 0 0 1.93808e+14 7.36471e+14 0 
329 0 37.5475 5.82161e+17 502.053 155.81 139.374 7450.02 1.03232 0.242965 5.78711e+17 0 0 1.16285e+15 2.24817e+15 3.87616e+13 
333 0 38.3425 5.94487e+17 1149.38 205.873 145.967 7407.29 11.4466 1.84311 5.84796e+17 7.75232e+13 0 3.64359e+15 5.93053e+15 3.87616e+13 
361 0 37.46 5.80804e+17 201.305 135.446 136.47 7470.8 -2.91904 2.21512 5.80261e+17 0 0 3.87616e+13 5.03901e+14 0 
365 0 37.445 5.80571e+17 379.053 148.357 138.375 7459.47 1.57327 1.2542 5.78129e+17 0 0 8.52755e+14 1.58923e+15 0 
369 0 38.0025 5.89215e+17 979.399 183.511 147.685 7418.96 10.0505 -1.51237 5.80881e+17 0 0 2.8296e+15 5.50415e+15 0 
397 0 37.5225 5.81773e+17 202.436 139.056 136.955 7468.43 -0.203326 -2.32056 5.81347e+17 0 0 7.75232e+13 3.48854e+14 0 
401 0 37.435 5.80416e+17 406.006 148.623 139.601 7454.72 3.05549 2.18827 5.78246e+17 0 0 7.36471e+14 1.43418e+15 0 
405 0 37.3575 5.79215e+17 999.258 184.952 143.586 7416.86 13.6913 2.6034 5.71114e+17 1.16285e+14 0 2.94588e+15 5.03901e+15 0 
433 0 37.475 5.81037e+17 235.17 141.915 136.4 7468.73 1.65244 0.500366 5.803e+17 0 0 3.10093e+14 4.26378e+14 0 
437 0 37.3025 5.78362e+17 350.192 145.515 137.093 7459.42 1.49004 0.504265 5.76191e+17 0 0 6.97709e+14 1.47294e+15 0 
441 0 38.235 5.9282e+17 704.781 177.958 142.677 7434.96 9.99882 -2.11857 5.87316e+17 0 0 1.89932e+15 3.56607e+15 3.87616e+13 
469 0 37.4225 5.80223e+17 187.954 137.306 137.165 7469.55 -1.19038 1.44207 5.79796e+17 0 0 7.75232e+13 3.48854e+14 0 
473 0 37.525 5.81812e+17 338.039 148.881 137.374 7460.65 2.66784 0.417566 5.79835e+17 0 0 3.87616e+14 1.58923e+15 0 
477 0 37.75 5.853e+17 574.518 175.724 139.23 7441.85 9.79734 0.0311348 5.79486e+17 3.87616e+13 0 2.09313e+15 3.64359e+15 3.87616e+13 
505 0 37.6325 5.83479e+17 213.938 143.931 136.532 7467.8 0.991322 -1.58504 5.8282e+17 0 0 2.3257e+14 4.26378e+14 0 
509 0 37.42 5.80184e+17 315.688 140.24 137.802 7461.65 0.663064 -0.0219484 5.78711e+17 3.87616e+13 0 3.48854e+14 1.08533e+15 0 
513 0 38.0725 5.90301e+17 491.431 155.822 138.711 7449.61 5.465 -0.575941 5.86153e+17 0 0 1.31789e+15 2.8296e+15 0 
541 0 37.38 5.79564e+17 211.973 138.358 136.191 7469.74 -0.231724 0.361974 5.78943e+17 0 0 7.75232e+13 5.42663e+14 0 
545 0 37.525 5.81812e+17 264.343 144.178 136.837 7465.4 -0.428083 0.230041 5.80494e+17 3.87616e+13 0 4.65139e+14 8.13994e+14 0 
549 0 37.63 5.8344e+17 517.719 157.877 139.756 7447 10.1611 0.974416 5.79641e+17 0 0 1.24037e+15 2.5195e+15 3.87616e+13 
577 0 37.35 5.79098e+17 193.68 136.55 136.391 7469.79 0.342464 -2.45406 5.78866e+17 0 0 0 2.3257e+14 0 
581 0 37.4525 5.80688e+17 240.369 140.803 137.984 7467.77 2.5993 2.15641 5.7968e+17 3.87616e+13 0 3.48854e+14 6.20186e+14 0 
585 0 37.6075 5.83091e+17 374.317 156.538 138.16 7458.18 6.44931 -0.481037 5.80688e+17 0 0 6.97709e+14 1.66675e+15 3.87616e+13 
613 0 37.4275 5.803e+17 211.187 139.001 137.7 7466.38 1.53001 0.308551 5.79835e+17 0 0 1.16285e+14 3.48854e+14 0 
617 0 37.4725 5.80998e+17 225.776 138.298 137.511 7469.19 4.38101 -1.10821 5.80223e+17 0 0 1.16285e+14 6.58947e+14 0 
621 0 37.64 5.83595e+17 350.403 143.351 139.461 7458.27 4.92026 0.63646 5.81579e+17 3.87616e+13 0 7.36471e+14 1.24037e+15 0 
2 0 38.4325 5.95882e+17 361.645 142.855 138.491 7459.13 13.1475 -0.391934 5.9375e+17 0 0 7.75232e+14 1.35666e+15 0 
6 0 41.1325 6.37745e+17 758.143 160.212 143.117 7434.07 31.203 -0.0604481 6.30458e+17 0 0 2.0156e+15 5.27158e+15 0 
38 0 37.5775 5.82626e+17 331.086 147.56 138.216 7461.95 -1.92813 0.221047 5.81308e+17 0 0 4.65139e+14 8.52755e+14 0 
42 0 37.58 5.82665e+17 913.77 172.927 146.131 7422.02 1.59711 2.23087 5.75145e+17 3.87616e+13 0 2.55827e+15 4.80644e+15 1.16285e+14 
74 0 37.82 5.86386e+17 324.276 143.01 139.26 7460.92 0.495179 0.614585 5.84564e+17 0 0 5.42663e+14 1.27913e+15 0 
78 0 37.9375 5.88207e+17 890.589 164.629 140.541 7426.45 -0.654409 1.19852 5.81037e+17 7.75232e+13 0 1.93808e+15 5.11653e+15 3.87616e+13 
110 0 37.56 5.82354e+17 332.464 141.582 138.668 7463.37 1.1414 1.95705 5.80571e+17 0 0 4.65139e+14 1.31789e+15 0 
114 0 38.14 5.91347e+17 844.711 170.264 141.281 7427.15 1.94516 2.84503 5.83479e+17 0 0 2.48074e+15 5.38786e+15 0 
146 0 37.47 5.80959e+17 367.476 140.985 135.917 7459.33 -0.222799 -0.601087 5.79137e+17 0 0 5.42663e+14 1.27913e+15 0 
150 0 37.375 5.79486e+17 794.951 168.654 145.563 7429.53 2.43853 0.970542 5.72509e+17 0 0 2.09313e+15 4.88396e+15 0 
182 0 37.4125 5.80067e+17 250.865 144.855 137.221 7462.08 0.316016 2.74855 5.79098e+17 0 0 3.10093e+14 6.58947e+14 0 
186 0 38.2225 5.92626e+17 771.995 168.093 141.575 7430.36 5.07611 1.88796 5.85998e+17 0 0 2.05437e+15 4.53511e+15 3.87616e+13 
218 0 37.6625 5.83944e+17 241.44 142.443 137.207 7465.41 1.01126 -0.0336862 5.82858e+17 0 0 2.71331e+14 8.13994e+14 0 
222 0 37.915 5.87859e+17 677.178 171.011 142.13 7438.81 4.87161 1.14844 5.82509e+17 3.87616e+13 0 1.43418e+15 3.87616e+15 0 
254 0 37.565 5.82432e+17 271.92 140.932 136.123 7467.08 1.73516 0.261799 5.81463e+17 0 0 1.16285e+14 8.52755e+14 0 
258 0 37.9925 5.8906e+17 583.99 167.5 139.789 7445.36 2.79405 -0.18517 5.84176e+17 0 0 1.78303e+15 3.06217e+15 3.87616e+13 
290 0 37.83 5.86541e+17 280.571 140.898 137.105 7462.07 0.465158 -1.01523 5.85106e+17 0 0 3.10093e+14 1.08533e+15 3.87616e+13 
294 0 38.04 5.89797e+17 738.357 168.248 142.899 7434.63 6.32482 0.529435 5.85106e+17 0 0 1.66675e+15 3.02341e+15 0 
326 0 37.69 5.8437e+17 257.588 136.302 137.159 7466.92 1.90481 1.66649 5.83323e+17 0 0 1.55046e+14 8.91517e+14 0 
330 0 37.87 5.87161e+17 623.752 158.16 140.564 7442.42 2.24842 0.713268 5.82548e+17 0 0 1.43418e+15 3.17845e+15 0 
362 0 37.4775 5.81075e+17 290.751 143.321 137.19 7463.39 -0.608154 -0.0643102 5.79757e+17 0 0 3.87616e+14 9.30279e+14 0 
366 0 37.865 5.87083e+17 495.865 158.397 141.129 7450.78 4.10202 0.632363 5.83362e+17 0 0 1.39542e+15 2.3257e+15 0 
398 0 37.7125 5.84719e+17 278.139 144.44 138.235 7463.08 4.77595 -0.17847 5.83362e+17 0 0 5.03901e+14 8.52755e+14 0 
402 0 37.7875 5.85882e+17 406.573 165.659 138.389 7455.82 2.16733 4.35361 5.82548e+17 0 0 1.20161e+15 2.13189e+15 0 
434 0 37.345 5.79021e+17 245.11 143.495 136.956 7467.4 0.126944 1.64397 5.78246e+17 0 0 1.93808e+14 5.81424e+14 0 
438 0 37.5825 5.82703e+17 407.569 153.686 139.794 7457.79 4.15072 0.021356 5.80339e+17 0 0 8.13994e+14 1.55046e+15 0 
470 0 37.5425 5.82083e+17 223.31 138.799 135.97 7467.71 2.09746 1.5085 5.81308e+17 0 0 3.10093e+14 4.65139e+14 0 
474 0 37.4875 5.8123e+17 365.124 149.497 136.871 7458.73 1.82772 -0.663375 5.79021e+17 3.87616e+13 0 7.75232e+14 1.39542e+15 0 
506 0 37.28 5.78013e+17 246.308 140.944 136.762 7466.49 3.84019 0.109895 5.77083e+17 0 0 1.16285e+14 8.13994e+14 0 
510 0 37.525 5.81812e+17 348.897 152.209 139.022 7459.52 3.7338 -2.14776 5.79564e+17 7.75232e+13 0 8.52755e+14 1.31789e+15 0 
542 0 37.505 5.81502e+17 207.635 137.685 137.001 7469.16 -0.933312 -1.4403 5.8092e+17 0 0 1.16285e+14 4.65139e+14 0 
546 0 37.6825 5.84254e+17 245.292 143.383 136.849 7465.42 -3.21367 -2.60749 5.8313e+17 0 0 3.10093e+14 8.13994e+14 0 
578 0 37.74 5.85145e+17 197.916 140.284 136.084 7471.35 1.45834 -0.327678 5.84641e+17 3.87616e+13 0 7.75232e+13 3.87616e+14 0 
582 0 37.505 5.81502e+17 292.317 152.063 138.825 7461.5 2.8811 2.98417 5.79292e+17 0 0 9.30279e+14 1.27913e+15 0 
614 0 37.58 5.82665e+17 200.399 138.929 136.875 7466.61 0.360953 -0.181565 5.82316e+17 0 0 1.16285e+14 2.3257e+14 0 
618 0 37.3475 5.7906e+17 224.249 143.662 137.376 7468.51 2.70027 -0.58764 5.78091e+17 0 0 4.26378e+14 5.42663e+14 0 
3 0 38.99 6.04526e+17 300.988 149.579 138.395 7462.46 17.6708 -0.16484 6.02278e+17 0 0 4.26378e+14 1.8218e+15 0 
7 0 41.5575 6.44334e+17 1107.41 190.896 144.91 7405.57 31.3567 -1.27351 6.33287e+17 1.16285e+14 0 3.75988e+15 7.13214e+15 3.87616e+13 
39 0 37.515 5.81657e+17 400.418 151.67 138.41 7455.51 -0.295739 -1.85325 5.79253e+17 0 0 8.91517e+14 1.5117e+15 0 
43 0 38.045 5.89874e+17 1195.42 196.914 149.487 7405.56 3.01141 1.53484 5.80145e+17 3.87616e+13 0 3.17845e+15 6.47319e+15 3.87616e+13 
75 0 37.4175 5.80145e+17 434.472 147.299 138.998 7452.51 0.460651 -1.21109 5.77509e+17 0 0 6.58947e+14 1.93808e+15 3.87616e+13 
79 0 37.865 5.87083e+17 1086.67 172.491 145.425 7414.32 1.95054 1.35712 5.78091e+17 0 0 2.44198e+15 6.55071e+15 0 
111 0 37.755 5.85378e+17 417.266 145.581 136.587 7455 2.09455 -0.301355 5.82897e+17 0 0 6.58947e+14 1.8218e+15 0 
115 0 37.88 5.87316e+17 1069.46 181.742 146.158 7409.9 5.70401 -0.859877 5.77199e+17 3.87616e+13 0 3.44978e+15 6.62824e+15 0 
147 0 37.6525 5.83789e+17 444.84 151.583 138.706 7453.97 0.296531 -0.0967731 5.80765e+17 0 0 1.08533e+15 1.93808e+15 0 
151 0 38.3975 5.9534e+17 1164.99 198.61 145.025 7407.98 5.59388 4.4318 5.85804e+17 0 0 3.56607e+15 5.96929e+15 0 
183 0 37.6075 5.83091e+17 400.015 146.187 138.819 7457.45 -1.27112 -1.59316 5.80339e+17 0 0 6.97709e+14 2.05437e+15 0 
187 0 38.08 5.90417e+17 970.028 170.239 147.741 7421.97 3.32352 1.8966 5.82975e+17 0 0 2.36446e+15 5.07777e+15 0 
219 0 37.5175 5.81695e+17 346.172 146.631 137.71 7460.11 1.18115 -1.22764 5.79757e+17 0 0 5.03901e+14 1.43418e+15 0 
223 0 37.67 5.8406e+17 1007.46 177.462 143.277 7414.14 7.03121 1.14524 5.7561e+17 0 0 2.63579e+15 5.69796e+15 1.16285e+14 
255 0 37.57 5.82509e+17 346.348 145.438 136.952 7462.49 1.40646 0.745624 5.80843e+17 0 0 3.10093e+14 1.35666e+15 0 
259 0 37.865 5.87083e+17 842.772 162.224 141.566 7425.3 8.35606 0.934642 5.80649e+17 0 0 2.20941e+15 4.22502e+15 0 
291 0 37.345 5.79021e+17 349.041 141.035 137.392 7456.67 -0.735148 -1.04983 5.76889e+17 0 0 4.26378e+14 1.70551e+15 0 
295 0 37.7 5.84525e+17 762.394 182.804 146.177 7433.62 3.47994 1.73476 5.78439e+17 0 0 2.0156e+15 4.06997e+15 0 
327 0 37.37 5.79409e+17 305.877 141.569 137.494 7464.18 0.799342 1.20819 5.78129e+17 0 0 3.48854e+14 9.30279e+14 0 
331 0 37.4875 5.8123e+17 666.087 159.092 140.397 7439.19 7.47807 -0.211473 5.76153e+17 0 0 1.66675e+15 3.37226e+15 3.87616e+13 
363 0 37.5875 5.82781e+17 297.74 142.972 137.522 7463.74 -1.68447 -1.2693 5.81153e+17 0 0 5.03901e+14 1.12409e+15 0 
367 0 37.665 5.83982e+17 554.573 175.266 141.424 7445.75 3.55612 1.74448 5.79253e+17 0 0 1.5117e+15 3.21721e+15 0 
399 0 37.2975 5.78284e+17 354.528 147.841 138.165 7460.44 1.52938 0.562655 5.76424e+17 0 0 4.65139e+14 1.39542e+15 0 
403 0 37.5225 5.81773e+17 585.119 152.535 140.796 7444.39 5.88083 -0.0359948 5.77044e+17 0 0 1.31789e+15 3.3335e+15 7.75232e+13 
435 0 37.585 5.82742e+17 255.338 140.39 136.676 7464.49 2.61977 -3.34339 5.8154e+17 0 0 3.87616e+14 8.13994e+14 0 
439 0 37.695 5.84448e+17 509.601 156.753 139.225 7449.11 5.14724 -0.299457 5.81075e+17 0 0 1.0078e+15 2.36446e+15 0 
471 0 37.6925 5.84409e+17 242.058 137.777 136.894 7467.67 1.42172 1.35544 5.83401e+17 0 0 3.10093e+14 6.97709e+14 0 
475 0 37.9225 5.87975e+17 477.727 149.349 138.806 7451.28 5.82379 0.0949136 5.84525e+17 3.87616e+13 0 1.04656e+15 2.36446e+15 0 
507 0 37.6025 5.83013e+17 241.383 150.572 136.531 7467.23 1.6141 0.427367 5.82199e+17 0 0 2.3257e+14 5.81424e+14 0 
511 0 37.6175 5.83246e+17 380.608 152.688 138.2 7459.36 3.92608 -1.09429 5.80959e+17 0 0 7.36471e+14 1.55046e+15 0 
543 0 37.34 5.78943e+17 213.256 140.021 135.976 7468.45 1.12457 0.72709 5.78168e+17 3.87616e+13 0 7.75232e+13 6.58947e+14 0 
547 0 37.5825 5.82703e+17 331.468 152.627 137.184 7460.2 2.2142 -0.182545 5.80533e+17 0 0 6.58947e+14 1.5117e+15 0 
579 0 37.405 5.79951e+17 226.286 138.13 136.711 7467.64 1.82992 -1.13807 5.79486e+17 0 0 1.55046e+14 3.10093e+14 0 
583 0 37.0825 5.74951e+17 299.592 143.517 137.771 7464.07 0.968221 -2.90254 5.73207e+17 3.87616e+13 0 5.42663e+14 1.16285e+15 0 
615 0 37.3525 5.79137e+17 188.209 137.801 137.374 7469.57 1.57681 1.55485 5.78633e+17 0 0 1.93808e+14 2.71331e+14 3.87616e+13 
619 0 37.855 5.86928e+17 339.657 142.685 138.601 7458.2 4.4955 -0.90663 5.84796e+17 0 0 6.97709e+14 1.43418e+15 0 
4 0 40.305 6.24915e+17 504.486 147.772 141.245 7448.56 22.1225 -0.211044 6.20922e+17 0 0 1.31789e+15 2.67455e+15 0 
8 0 42.61 6.60653e+17 1616.64 235.2 158.955 7374.33 32.5352 0.465166 6.43753e+17 3.87616e+13 0 6.00805e+15 1.0737e+16 1.16285e+14 
40 0 38.0125 5.8937e+17 471.516 152.126 138.387 7453.55 -0.239545 -1.26565 5.86231e+17 0 0 1.0078e+15 2.13189e+15 0 
44 0 38.6875 5.99836e+17 1655.05 220.486 148.844 7373.81 -0.629355 2.45746 5.84099e+17 0 0 5.93053e+15 9.80669e+15 0 
76 0 37.9575 5.88518e+17 524.144 157.293 141.257 7448.77 -2.1825 -0.545183 5.84099e+17 3.87616e+13 0 1.5117e+15 2.86836e+15 0 
80 0 38.2375 5.92859e+17 1773.49 214.605 148.837 7368.01 5.21763 -0.304469 5.77664e+17 3.87616e+13 0 5.62043e+15 9.49659e+15 3.87616e+13 
112 0 37.4725 5.80998e+17 522.665 147.95 139.698 7448.65 2.64258 1.61994 5.77548e+17 0 0 1.20161e+15 2.24817e+15 0 
116 0 38.61 5.98634e+17 1596.43 202.525 150.274 7378.36 7.74961 1.50948 5.8468e+17 0 0 4.8452e+15 9.03145e+15 7.75232e+13 
148 0 37.6125 5.83168e+17 387.795 146.576 138.669 7455.28 0.00882456 1.84089 5.80223e+17 0 0 8.13994e+14 2.13189e+15 0 
152 0 37.8725 5.872e+17 1390.61 200.417 144.717 7392.76 7.78534 -0.95129 5.74951e+17 0 0 3.95368e+15 8.29498e+15 0 
184 0 38.065 5.90184e+17 548.314 155.426 138.01 7448.64 0.537986 -1.72575 5.86541e+17 0 0 1.27913e+15 2.36446e+15 0 
188 0 38.3925 5.95262e+17 1460.39 219.528 149.889 7381.76 7.14917 7.02226 5.81889e+17 0 0 4.72892e+15 8.60508e+15 3.87616e+13 
220 0 37.7775 5.85727e+17 391.946 146.955 137.581 7460.59 1.07745 1.18617 5.83323e+17 0 0 7.36471e+14 1.66675e+15 0 
224 0 38.1725 5.91851e+17 1218.3 203.3 147.205 7397.23 9.49169 -1.24166 5.80106e+17 3.87616e+13 0 3.91492e+15 7.75232e+15 3.87616e+13 
256 0 37.64 5.83595e+17 384.614 146.143 136.789 7458.01 4.23438 0.589803 5.81657e+17 0 0 5.42663e+14 1.39542e+15 0 
260 0 38.015 5.89409e+17 1321.5 200.649 147.013 7394.35 10.8182 1.34991 5.78439e+17 3.87616e+13 0 3.60483e+15 7.28718e+15 3.87616e+13 
292 0 37.59 5.8282e+17 409.79 143.504 137.671 7457.96 -0.414065 0.934136 5.80378e+17 0 0 7.36471e+14 1.70551e+15 0 
296 0 38.3025 5.93867e+17 954.553 197.257 149.896 7417.44 8.26523 0.339038 5.85843e+17 0 0 2.86836e+15 5.07777e+15 7.75232e+13 
328 0 37.55 5.82199e+17 360.335 146.517 140.777 7458.83 1.60478 1.65423 5.80184e+17 0 0 4.26378e+14 1.58923e+15 0 
332 0 38.01 5.89332e+17 898.588 180.434 140.623 7424.3 8.63374 1.94784 5.82471e+17 0 0 2.09313e+15 4.76768e+15 0 
364 0 37.7975 5.86037e+17 391.916 153.002 137.708 7456.54 2.08009 -1.51743 5.83634e+17 0 0 8.52755e+14 1.55046e+15 0 
368 0 37.8575 5.86967e+17 842.126 183.717 144.73 7426.72 6.90794 0.878854 5.803e+17 0 0 2.71331e+15 3.91492e+15 3.87616e+13 
400 0 37.5925 5.82858e+17 302.707 145.317 137.713 7463.97 1.67947 -0.956483 5.81385e+17 0 0 4.65139e+14 1.0078e+15 0 
404 0 38.3025 5.93867e+17 716.851 179.951 139.712 7433.8 12.3201 -0.721918 5.88246e+17 3.87616e+13 0 1.74427e+15 3.8374e+15 0 
436 0 37.67 5.8406e+17 331.764 151.814 136.993 7460.87 2.40444 -0.204861 5.82277e+17 0 0 5.81424e+14 1.20161e+15 0 
440 0 37.57 5.82509e+17 629.308 161.81 142.328 7442.44 6.41996 0.952296 5.77781e+17 7.75232e+13 0 1.39542e+15 3.25598e+15 0 
472 0 37.845 5.86773e+17 318.091 141.588 137.588 7461.63 1.0146 -0.302247 5.85106e+17 0 0 4.26378e+14 1.24037e+15 0 
476 0 37.5075 5.8154e+17 543.032 159.292 139.169 7447.56 5.93231 0.153651 5.77626e+17 0 0 1.47294e+15 2.44198e+15 0 
508 0 37.48 5.81114e+17 290.965 141.345 137.84 7462.71 1.91179 0.923035 5.80029e+17 0 0 3.48854e+14 7.36471e+14 0 
512 0 37.305 5.78401e+17 392.58 171.553 140.785 7456.52 6.55126 0.828563 5.75765e+17 0 0 6.97709e+14 1.93808e+15 0 
544 0 37.615 5.83207e+17 256.97 147.194 137.657 7465.75 1.95189 1.12167 5.82006e+17 3.87616e+13 0 3.87616e+14 7.36471e+14 3.87616e+13 
548 0 37.84 5.86696e+17 491.023 150.137 138.859 7452.27 4.85499 -1.44118 5.83091e+17 3.87616e+13 0 1.24037e+15 2.3257e+15 0 
580 0 37.495 5.81347e+17 220.342 140.695 136.673 7466.6 1.46494 -0.422467 5.80765e+17 0 0 1.55046e+14 4.26378e+14 0 
584 0 37.925 5.88014e+17 368.94 144.79 137.589 7459.11 6.96934 -0.98654 5.85804e+17 0 0 6.97709e+14 1.47294e+15 3.87616e+13 
616 0 37.545 5.82122e+17 182.276 141.248 138.361 7470.87 -0.73609 0.0443177 5.81618e+17 0 0 2.71331e+14 2.3257e+14 0 
620 0 37.6175 5.83246e+17 340.079 152.782 138.385 7457.91 3.83682 -0.888297 5.81385e+17 0 0 7.75232e+14 1.08533e+15 0 
10 0 44.9475 6.96895e+17 3335.33 337.906 171.408 7250.85 36.3614 -0.142334 6.59374e+17 3.87616e+13 0 1.36053e+16 2.37609e+16 1.16285e+14 
46 0 39.805 6.17162e+17 3272.99 349.551 177.985 7256.9 6.67289 -0.311068 5.84758e+17 7.75232e+13 0 1.17835e+16 2.04274e+16 1.16285e+14 
82 0 39.8925 6.18519e+17 3462.62 324.435 165.398 7247.85 13.1556 -2.57298 5.86541e+17 1.16285e+14 0 1.10858e+16 2.05824e+16 1.93808e+14 
118 0 39.295 6.09255e+17 3576.32 314.357 167.536 7245.35 20.2291 -2.89854 5.78595e+17 7.75232e+13 0 1.15122e+16 1.89932e+16 7.75232e+13 
154 0 39.3725 6.10457e+17 3062.19 336.434 169.892 7271.35 20.4553 3.53565 5.8061e+17 1.16285e+14 0 1.0892e+16 1.87219e+16 1.16285e+14 
190 0 39.085 6.05999e+17 2650.16 282.774 161.759 7305.6 15.0522 -0.701179 5.8154e+17 1.55046e+14 0 8.87641e+15 1.53884e+16 3.87616e+13 
226 0 38.7675 6.01076e+17 2299.28 315.534 161.793 7327.89 22.231 1.18646 5.79641e+17 3.87616e+13 0 7.98489e+15 1.32952e+16 1.16285e+14 
262 0 38.775 6.01193e+17 1935.38 244.642 151.19 7351.83 23.9922 -0.383198 5.83401e+17 0 0 5.93053e+15 1.18611e+16 0 
298 0 38.61 5.98634e+17 1886.61 252.881 154.427 7356.33 22.2561 0.634721 5.83052e+17 0 0 6.20186e+15 9.38031e+15 0 
334 0 38.17 5.91812e+17 1496.35 223.77 149.643 7383.15 16.0863 -0.315289 5.78595e+17 0 0 4.96149e+15 8.13994e+15 1.16285e+14 
370 0 38.3825 5.95107e+17 1144.55 196.942 149.634 7406.68 15.9168 -1.22431 5.8406e+17 1.16285e+14 0 3.8374e+15 7.05461e+15 3.87616e+13 
406 0 38.045 5.89874e+17 932.757 197.022 151.238 7416.74 13.7893 -1.60749 5.80416e+17 0 0 3.3335e+15 6.08557e+15 3.87616e+13 
442 0 37.5125 5.81618e+17 850.399 193.434 142.918 7425.04 12.0988 0.582948 5.74447e+17 3.87616e+13 0 2.5195e+15 4.57387e+15 3.87616e+13 
478 0 38.1175 5.90998e+17 735.534 165.2 142.534 7432.3 9.64263 -1.00165 5.85068e+17 3.87616e+13 0 2.24817e+15 3.64359e+15 0 
514 0 37.4125 5.80067e+17 683.8 179.395 141.438 7437.03 11.8711 -0.107644 5.74757e+17 3.87616e+13 0 1.5117e+15 3.75988e+15 0 
550 0 37.795 5.85998e+17 524.61 168.01 142.651 7447.77 6.44604 1.85702 5.81889e+17 3.87616e+13 0 1.47294e+15 2.59703e+15 0 
586 0 37.785 5.85843e+17 505.057 168.161 142.853 7448.15 7.21376 -1.87008 5.81928e+17 0 0 1.12409e+15 2.75207e+15 3.87616e+13 
622 0 37.6225 5.83323e+17 416.014 163.645 139.999 7454.6 6.61432 1.4204 5.80223e+17 0 0 1.12409e+15 1.97684e+15 0 
11 0 45.935 7.12206e+17 5140.89 403.176 191.12 7122.91 35.5822 -4.98695 6.54025e+17 2.71331e+14 0 2.12026e+16 3.67072e+16 0 
47 0 40.9325 6.34644e+17 5455.89 461.289 190.122 7096.48 13.3238 1.77198 5.81734e+17 1.55046e+14 0 1.97684e+16 3.28311e+16 1.55046e+14 
83 0 40.9475 6.34876e+17 5000.77 474.142 188.635 7129.54 21.1304 -1.60372 5.85649e+17 7.75232e+13 0 1.8218e+16 3.08542e+16 7.75232e+13 
119 0 40.6875 6.30845e+17 4835.54 442.335 188.14 7144.32 29.0256 -1.35593 5.84913e+17 1.93808e+14 0 1.77528e+16 2.77921e+16 1.93808e+14 
155 0 40.55 6.28713e+17 4410.76 444.593 188.723 7171.46 32.6915 -2.20927 5.84835e+17 7.75232e+13 0 1.5931e+16 2.7637e+16 2.3257e+14 
191 0 40.29 6.24682e+17 3842.19 377.847 181.55 7215.24 29.3193 -2.38028 5.88091e+17 0 0 1.31789e+16 2.32957e+16 1.16285e+14 
227 0 39.4925 6.12317e+17 3330.4 337.972 167.081 7251.21 30.0864 2.50245 5.79331e+17 1.93808e+14 0 1.17448e+16 2.097e+16 7.75232e+13 
263 0 39.435 6.11426e+17 2924 331.748 171.643 7280.55 31.4381 4.33075 5.84874e+17 7.75232e+13 0 9.14774e+15 1.73264e+16 0 
299 0 38.8275 6.02007e+17 2491.68 283.906 158.15 7315.48 27.4199 1.27052 5.79951e+17 7.75232e+13 0 8.13994e+15 1.37216e+16 1.16285e+14 
335 0 38.4425 5.96037e+17 2044.98 253.287 159.98 7342.74 27.65 1.5222 5.76812e+17 7.75232e+13 0 6.74452e+15 1.23262e+16 7.75232e+13 
371 0 38.4375 5.9596e+17 1596.08 224.898 158.683 7374.34 24.0824 0.839611 5.80881e+17 0 0 5.853e+15 9.1865e+15 3.87616e+13 
407 0 38.625 5.98867e+17 1239.97 223.96 149.022 7397.09 19.7782 0.849699 5.87626e+17 0 0 4.49635e+15 6.70576e+15 3.87616e+13 
443 0 37.79 5.8592e+17 1208.98 212.075 149.405 7400.56 20.8794 -1.37099 5.75339e+17 3.87616e+13 0 4.03121e+15 6.47319e+15 3.87616e+13 
479 0 38.2625 5.93246e+17 911.864 191.454 144.345 7417.63 15.7243 -0.343312 5.85727e+17 3.87616e+13 0 2.90712e+15 4.53511e+15 3.87616e+13 
515 0 37.37 5.79409e+17 751.047 182.381 143.196 7431.29 10.3325 0.229259 5.72974e+17 3.87616e+13 0 2.36446e+15 4.03121e+15 0 
551 0 37.7875 5.85882e+17 623.715 165.124 141.36 7441.62 10.3689 0.671141 5.80378e+17 0 0 1.70551e+15 3.79864e+15 0 
587 0 37.6525 5.83789e+17 520.153 154.864 139.648 7449.61 10.3839 -0.0909201 5.79719e+17 0 0 1.5117e+15 2.55827e+15 0 
623 0 37.6775 5.84176e+17 460.258 153.664 140.987 7452.46 8.90064 -0.809278 5.80959e+17 0 0 1.31789e+15 1.86056e+15 3.87616e+13 
12 0 48.1725 7.46897e+17 7422.22 594.167 216.788 6933.86 52.6573 5.09017 6.57901e+17 1.93808e+14 0 3.44591e+16 5.38786e+16 4.65139e+14 
48 0 42.82 6.63909e+17 8074.8 622.859 230.412 6878.16 22.4231 4.00466 5.8154e+17 1.55046e+14 0 3.17845e+16 5.01575e+16 2.71331e+14 
84 0 43.2675 6.70847e+17 7876.87 675.321 231.105 6893.26 35.4758 -1.15278 5.88479e+17 2.3257e+14 0 2.99627e+16 5.19793e+16 1.93808e+14 
120 0 42.3875 6.57203e+17 7305.76 616.785 210.204 6942.73 44.5273 3.63609 5.85262e+17 3.87616e+13 0 2.7482e+16 4.4227e+16 1.93808e+14 
156 0 41.58 6.44683e+17 6673.25 578.918 221.286 6992.38 51.7864 0.165379 5.77819e+17 1.16285e+14 0 2.55827e+16 4.10485e+16 1.16285e+14 
192 0 41.17 6.38326e+17 5783.55 467.771 202.283 7061.46 59.9177 2.63765 5.82703e+17 1.55046e+14 0 2.05049e+16 3.48854e+16 7.75232e+13 
228 0 40.75 6.31814e+17 4869.23 435.382 185.719 7139.87 58.1471 -1.92255 5.85959e+17 1.16285e+14 0 1.70163e+16 2.84123e+16 3.10093e+14 
264 0 40.4675 6.27434e+17 4184.28 397.746 192.69 7187.69 55.1057 1.35785 5.85959e+17 2.3257e+14 0 1.72102e+16 2.39934e+16 3.87616e+13 
300 0 40.0175 6.20457e+17 3272.81 337.516 172.179 7251.54 48.5581 -1.72976 5.88673e+17 0 0 1.20936e+16 1.96521e+16 3.87616e+13 
336 0 39.2625 6.08751e+17 2844.78 364.286 170.608 7285.37 42.2663 0.680137 5.82277e+17 7.75232e+13 0 1.06594e+16 1.56597e+16 7.75232e+13 
372 0 38.77 6.01115e+17 1979.65 280.27 160.688 7346.08 31.0738 3.31258 5.81889e+17 3.87616e+13 0 8.02365e+15 1.10858e+16 7.75232e+13 
408 0 38.2875 5.93634e+17 1714.36 241.275 153.543 7361.96 29.6522 1.97267 5.77974e+17 3.87616e+13 0 5.69796e+15 9.84545e+15 7.75232e+13 
13 0 52.8675 8.19692e+17 11286.4 933.022 290.329 6572.38 43.9666 -3.87035 6.77902e+17 3.87616e+14 0 5.92277e+16 8.19033e+16 2.71331e+14 
49 0 47.485 7.36238e+17 12408.7 951.181 308.356 6475.49 46.0986 -1.74559 5.99913e+17 3.48854e+14 0 5.66695e+16 7.91124e+16 1.93808e+14 
85 0 46.5225 7.21315e+17 11814 934.056 290.628 6530.53 63.1499 -8.86929 5.90494e+17 6.97709e+14 0 5.04289e+16 7.95001e+16 1.93808e+14 
121 0 45.7675 7.09609e+17 10811.1 895.022 293.225 6625.73 83.6543 0.38 5.92975e+17 3.48854e+14 0 4.63976e+16 6.97709e+16 1.16285e+14 
157 0 44.615 6.9174e+17 9481.5 801.322 254.556 6752.99 89.1927 6.10142 5.93983e+17 2.71331e+14 0 3.98082e+16 5.73284e+16 3.48854e+14 
193 0 43.665 6.7701e+17 8234.51 737.487 237.335 6859.72 93.7169 -2.2398 5.93518e+17 4.26378e+14 0 3.31024e+16 4.96149e+16 3.48854e+14 
229 0 42.1 6.52746e+17 6886.98 606.177 208.144 6975.69 87.711 0.510223 5.86618e+17 1.93808e+14 0 2.63579e+16 3.94206e+16 1.55046e+14 
265 0 41.4525 6.42706e+17 5535.99 502.51 199.476 7073.57 78.6601 0.523344 5.88866e+17 1.55046e+14 0 2.02723e+16 3.3335e+16 7.75232e+13 
301 0 39.96 6.19566e+17 4376.97 466.656 188.544 7165.93 67.7211 0.0443765 5.77897e+17 1.55046e+14 0 1.69776e+16 2.45361e+16 0 
337 0 39.5625 6.13402e+17 3385.23 380.443 175.737 7247.15 60.2925 0.668713 5.82354e+17 3.87616e+13 0 1.29076e+16 1.79854e+16 1.16285e+14 
373 0 39.265 6.0879e+17 2762.99 314.104 165.971 7286.91 46.2468 -1.60256 5.82548e+17 7.75232e+13 0 9.61288e+15 1.64737e+16 7.75232e+13 
409 0 39.0425 6.0534e+17 2128.04 290.324 160.361 7335.53 39.5131 -0.0625966 5.8406e+17 0 0 8.06241e+15 1.31014e+16 1.16285e+14 
445 0 38.79 6.01425e+17 1689.8 246.883 157.914 7364.86 33.6955 -1.79701 5.85765e+17 0 0 6.27938e+15 9.34155e+15 3.87616e+13 
481 0 38.76 6.0096e+17 1361.53 249.305 147.814 7389.37 27.9428 1.08365 5.88052e+17 7.75232e+13 0 4.3413e+15 8.45003e+15 3.87616e+13 
517 0 38.16 5.91657e+17 1132.43 216.167 156.326 7401.73 25.5309 1.05798 5.80339e+17 3.87616e+13 0 4.41882e+15 6.78328e+15 7.75232e+13 
553 0 37.965 5.88634e+17 747.594 189.551 143.619 7429.21 14.4194 -1.35024 5.81308e+17 3.87616e+13 0 2.90712e+15 4.38006e+15 0 
589 0 37.7275 5.84951e+17 628.781 184.414 145.823 7435.66 12.386 -0.867829 5.78556e+17 0 0 2.48074e+15 3.91492e+15 0 
625 0 38.025 5.89564e+17 528.905 184.971 141.684 7444.94 12.7519 -2.05413 5.84525e+17 3.87616e+13 0 1.86056e+15 3.13969e+15 0 
444 0 38.2275 5.92704e+17 1414.84 223.418 152.621 7389.1 24.7702 1.27668 5.80029e+17 3.87616e+13 0 4.49635e+15 8.13994e+15 0 
480 0 38.065 5.90184e+17 1177.26 235.178 150.695 7403.07 21.3555 -1.38028 5.79137e+17 3.87616e+13 0 3.48854e+15 7.48099e+15 3.87616e+13 
516 0 37.9925 5.8906e+17 869.961 192.666 147.051 7422.92 18.0725 -1.37553 5.81463e+17 7.75232e+13 0 2.55827e+15 4.96149e+15 0 
552 0 38.4875 5.96735e+17 811.08 176.653 144.179 7430.28 13.2736 -3.70197 5.90533e+17 0 0 2.17065e+15 4.03121e+15 0 
588 0 37.4275 5.803e+17 717.223 191.658 145.244 7434.4 16.1084 3.07113 5.73827e+17 7.75232e+13 0 2.5195e+15 3.87616e+15 0 
624 0 37.965 5.88634e+17 494.873 160.57 141.481 7448.92 10.7743 -0.171905 5.84448e+17 3.87616e+13 0 1.31789e+15 2.8296e+15 0 
14 0 60.9875 9.45589e+17 16173.4 1393.89 388.404 6007.8 64.14 0.641929 6.96662e+17 7.75232e+14 0 1.02369e+17 1.45279e+17 5.03901e+14 
50 0 54.6325 8.47057e+17 17195.6 1492.96 430.913 5869.57 63.5442 1.96201 6.10457e+17 7.36471e+14 0 9.50435e+16 1.40433e+17 3.87616e+14 
86 0 52.905 8.20273e+17 16758.3 1477.63 403.992 5937.23 104.233 -1.60041 6.05301e+17 5.42663e+14 0 8.83377e+16 1.252e+17 8.91517e+14 
122 0 51.0975 7.92249e+17 15263.4 1359.17 369.908 6124.31 137.877 0.489078 6.03945e+17 3.10093e+14 0 7.89574e+16 1.0861e+17 4.26378e+14 
158 0 48.95 7.58952e+17 13927.6 1127.46 324.226 6288.22 152.466 1.91019 5.96386e+17 5.42663e+14 0 6.51583e+16 9.65552e+16 3.10093e+14 