ITEM: TIMESTEP
23000
ITEM: NUMBER OF CELLS
1036
ITEM: BOX BOUNDS oo ao pp
-10 10
0 10
-0.5 0.5
ITEM: CELLS id proc f_avg_n f_avg_nrho f_avg_temp_tra f_avg_temp_rot f_avg_temp_vib f_avg_vel[1] f_avg_vel[2] f_avg_vel[3] f_avg_nrho_CO2 f_avg_nrho_O2 f_avg_nrho_C2 f_avg_nrho_CO f_avg_nrho_O f_avg_nrho_C 
1 0 37.891 5.87486e+17 246.057 140.753 136.745 7465.49 6.6165 -0.772043 5.86618e+17 0 0 1.86056e+14 6.82204e+14 0 
5 0 40.253 6.24108e+17 621.015 169.328 140.95 7439.3 29.9894 -0.140079 6.18666e+17 1.55046e+13 0 1.72102e+15 3.70561e+15 0 
9 0 43.197 6.69754e+17 2165.85 261.537 156.907 7336.31 35.2664 0.762689 6.47055e+17 1.55046e+13 0 8.04691e+15 1.46054e+16 3.10093e+13 
37 0 37.523 5.81781e+17 288.372 141.676 137.411 7465.55 0.776667 -0.410908 5.80556e+17 0 0 3.25598e+14 8.99269e+14 0 
41 0 37.76 5.85455e+17 659.74 164.238 141.792 7440.62 -0.197959 1.09635 5.80184e+17 4.65139e+13 0 1.55046e+15 3.6746e+15 0 
45 0 38.637 5.99053e+17 2549.53 271.353 161.253 7313.36 6.90624 -1.41209 5.76478e+17 2.3257e+14 0 7.72131e+15 1.45434e+16 7.75232e+13 
73 0 37.401 5.79889e+17 260.001 138.47 136.524 7466.79 0.777413 0.860434 5.79021e+17 0 0 2.3257e+14 6.3569e+14 0 
77 0 37.711 5.84696e+17 731.78 169.977 140.699 7435.5 1.78734 0.50701 5.78912e+17 0 0 1.75202e+15 4.0157e+15 1.55046e+13 
81 0 38.783 6.01317e+17 2412.79 261.886 165.179 7320.16 7.56386 0.649646 5.78385e+17 7.75232e+13 0 8.20196e+15 1.46364e+16 1.55046e+13 
109 0 37.664 5.83967e+17 275.235 141.603 137.591 7464.81 0.0565963 -0.877005 5.82928e+17 0 0 3.10093e+14 7.28718e+14 0 
113 0 37.649 5.83734e+17 660.965 168.096 140.447 7439.26 3.24573 -0.558912 5.78912e+17 3.10093e+13 0 1.53496e+15 3.22497e+15 3.10093e+13 
117 0 39.16 6.07162e+17 2222.79 255.647 157.821 7332.1 9.56695 -1.33613 5.8606e+17 9.30279e+13 0 7.3337e+15 1.35666e+16 1.08533e+14 
145 0 37.456 5.80742e+17 270.465 141.503 139.045 7465.76 -0.141344 1.73167 5.79812e+17 0 0 2.79084e+14 6.51195e+14 0 
149 0 37.766 5.85548e+17 623.351 168 141.277 7441.9 2.03943 -0.64741 5.80602e+17 0 0 1.64349e+15 3.27148e+15 3.10093e+13 
153 0 38.799 6.01565e+17 2067.32 270.225 157.407 7343.49 11.5622 3.18246 5.82308e+17 6.20186e+13 0 7.20966e+15 1.19541e+16 3.10093e+13 
181 0 37.374 5.79471e+17 269.215 138.058 136.274 7465.84 1.89844 1.77169 5.78447e+17 0 0 1.86056e+14 8.37251e+14 0 
185 0 37.724 5.84897e+17 628.113 156.34 140.034 7441.32 2.27407 -0.313965 5.8054e+17 0 0 1.3334e+15 3.0079e+15 1.55046e+13 
189 0 38.502 5.9696e+17 1894.09 228.127 154.606 7356.63 12.6418 -2.748 5.79982e+17 7.75232e+13 0 5.64369e+15 1.12254e+16 3.10093e+13 
217 0 37.324 5.78695e+17 228.019 138.029 136.828 7467.51 0.198066 -0.982604 5.77951e+17 0 0 1.86056e+14 5.58167e+14 0 
221 0 37.631 5.83455e+17 568.382 160.555 141.346 7446.67 2.89027 0.274049 5.79548e+17 0 0 1.36441e+15 2.51175e+15 3.10093e+13 
225 0 38.556 5.97797e+17 1798.31 254.908 153.166 7360.39 15.3475 1.34969 5.81145e+17 7.75232e+13 0 6.3569e+15 1.02021e+16 1.55046e+13 
253 0 37.597 5.82928e+17 240.266 139.17 137.307 7465.83 1.2625 -0.599401 5.82137e+17 0 0 1.86056e+14 6.04681e+14 0 
257 0 37.632 5.83471e+17 540.328 158.437 138.221 7448.11 2.44458 -0.349036 5.79595e+17 0 0 7.90737e+14 3.06992e+15 1.55046e+13 
261 0 38.173 5.91859e+17 1523.24 236.647 150.44 7380.7 13.8473 -0.935979 5.78029e+17 3.10093e+13 0 4.97699e+15 8.80664e+15 1.55046e+13 
289 0 37.35 5.79098e+17 241.773 139.586 136.894 7467.83 0.454463 0.627446 5.78277e+17 0 0 1.70551e+14 6.51195e+14 0 
293 0 37.741 5.85161e+17 509.975 157.724 140.981 7449.78 1.55346 -0.705925 5.81595e+17 1.55046e+13 0 1.22487e+15 2.3257e+15 0 
297 0 38.026 5.8958e+17 1308.58 227.287 148.74 7393.61 12.5157 -0.212488 5.77129e+17 7.75232e+13 0 4.75993e+15 7.58177e+15 3.10093e+13 
325 0 37.424 5.80246e+17 219.871 138.733 135.791 7468.85 1.08688 0.856289 5.79595e+17 0 0 1.55046e+14 4.96149e+14 0 
329 0 37.614 5.83192e+17 466.07 160.511 140.01 7451.98 1.90961 0.245903 5.79889e+17 1.55046e+13 0 1.22487e+15 2.04661e+15 1.55046e+13 
333 0 38.298 5.93797e+17 1123.19 203.078 146.584 7406.98 12.5878 0.412215 5.8375e+17 4.65139e+13 0 3.55056e+15 6.43443e+15 1.55046e+13 
361 0 37.464 5.80866e+17 205.928 137.07 136.63 7469.41 -1.40631 0.150196 5.80308e+17 0 0 9.30279e+13 4.65139e+14 0 
365 0 37.388 5.79688e+17 414.609 154.034 138.414 7457.43 3.20106 -0.410826 5.77021e+17 0 0 1.0078e+15 1.659e+15 0 
369 0 38 5.89176e+17 991.369 192.497 144.912 7416.85 11.9076 -1.13569 5.80587e+17 1.55046e+13 0 3.16295e+15 5.41112e+15 0 
397 0 37.394 5.79781e+17 199.205 137.675 136.538 7468.77 -0.397342 -1.81904 5.793e+17 0 0 1.08533e+14 3.72111e+14 0 
401 0 37.541 5.8206e+17 392.727 148.252 139.743 7456.43 3.16386 0.389337 5.79765e+17 1.55046e+13 0 7.75232e+14 1.50395e+15 0 
405 0 37.705 5.84603e+17 820.881 180.226 141.599 7428.72 9.8086 -0.288947 5.77781e+17 6.20186e+13 0 2.26368e+15 4.48084e+15 1.55046e+13 
433 0 37.499 5.81409e+17 224.531 140.316 137.598 7469.5 1.05998 1.05261 5.80804e+17 0 0 2.3257e+14 3.72111e+14 0 
437 0 37.424 5.80246e+17 315.176 146.989 138.031 7461.54 1.86119 0.0997531 5.78354e+17 1.55046e+13 0 4.65139e+14 1.41092e+15 0 
441 0 37.992 5.89052e+17 691.412 169.85 142.674 7436.15 9.72874 -1.43852 5.833e+17 3.10093e+13 0 1.93808e+15 3.76763e+15 1.55046e+13 
469 0 37.492 5.813e+17 197.877 136.679 136.664 7467.95 -0.707878 1.62117 5.80788e+17 0 0 9.30279e+13 4.18625e+14 0 
473 0 37.352 5.79129e+17 333.592 147.702 137.794 7460.36 1.75131 0.246807 5.77362e+17 1.55046e+13 0 5.27158e+14 1.22487e+15 0 
477 0 37.845 5.86773e+17 629.605 176.012 140.248 7437.73 8.87244 0.408179 5.81238e+17 1.55046e+13 0 2.04661e+15 3.45754e+15 1.55046e+13 
505 0 37.515 5.81657e+17 205.303 140.357 136.763 7468.19 0.508154 -0.334518 5.8113e+17 0 0 2.0156e+14 3.25598e+14 0 
509 0 37.675 5.84137e+17 290.013 144.663 138.235 7462.35 1.08099 -0.102722 5.82789e+17 1.55046e+13 0 3.41102e+14 9.92297e+14 0 
513 0 37.908 5.8775e+17 495.493 164.485 139.298 7448.88 7.64217 -0.749302 5.83533e+17 1.55046e+13 0 1.3489e+15 2.85285e+15 0 
541 0 37.495 5.81347e+17 185.64 137.638 136.802 7470.04 -1.1297 0.65521 5.80943e+17 0 0 4.65139e+13 3.56607e+14 0 
545 0 37.57 5.82509e+17 257.899 146.256 138.187 7466.38 1.15569 -0.126459 5.81254e+17 1.55046e+13 0 3.41102e+14 8.99269e+14 0 
549 0 37.858 5.86975e+17 447.32 161.581 140.14 7451.92 6.67497 -0.717194 5.83874e+17 0 0 1.13184e+15 1.95359e+15 1.55046e+13 
577 0 37.491 5.81285e+17 172.903 136.355 136.647 7469.79 -0.287912 -1.36265 5.81114e+17 0 0 1.55046e+13 1.55046e+14 0 
581 0 37.431 5.80354e+17 234.73 140.147 137.299 7466.52 2.19805 0.666792 5.79347e+17 1.55046e+13 0 3.87616e+14 6.04681e+14 0 
585 0 37.502 5.81455e+17 369.174 152.775 138.194 7457.81 5.67417 0.276888 5.78974e+17 1.55046e+13 0 6.97709e+14 1.75202e+15 1.55046e+13 
613 0 37.361 5.79269e+17 180.217 138.562 136.885 7470.14 0.980313 -0.109369 5.78974e+17 0 0 6.20186e+13 2.3257e+14 0 
617 0 37.349 5.79083e+17 214.233 141.901 136.863 7468.38 3.21839 -1.05791 5.78339e+17 0 0 1.86056e+14 5.58167e+14 0 
621 0 37.62 5.83285e+17 334.438 146.319 139.195 7460.04 4.17135 -0.384562 5.81471e+17 1.55046e+13 0 6.97709e+14 1.10083e+15 0 
2 0 38.405 5.95456e+17 323.609 142.835 137.767 7462.11 14.3885 -0.723639 5.93874e+17 0 0 5.58167e+14 1.02331e+15 0 
6 0 40.84 6.3321e+17 816.899 168.601 142.316 7430.12 29.2829 0.938946 6.25953e+17 0 0 2.27918e+15 4.96149e+15 1.55046e+13 
38 0 37.5 5.81424e+17 357.774 149.221 137.315 7460.2 -0.710248 1.17973 5.79734e+17 0 0 6.20186e+14 1.06982e+15 0 
42 0 37.95 5.88401e+17 960.233 174.368 145.362 7421.39 1.50974 2.25112 5.80339e+17 3.10093e+13 0 2.80634e+15 5.17855e+15 4.65139e+13 
74 0 37.625 5.83362e+17 346.879 142.307 138.518 7460.47 -0.206779 0.939824 5.81409e+17 0 0 5.58167e+14 1.36441e+15 3.10093e+13 
78 0 37.944 5.88308e+17 908.045 178.874 142.991 7424.55 -0.767508 -0.515461 5.80633e+17 1.08533e+14 0 2.18615e+15 5.36461e+15 1.55046e+13 
110 0 37.545 5.82122e+17 339.585 143.658 138.259 7461.82 1.38171 0.590373 5.8054e+17 0 0 5.11653e+14 1.06982e+15 0 
114 0 38.026 5.8958e+17 859.847 171.862 143.403 7426.98 3.91341 0.671985 5.81843e+17 4.65139e+13 0 2.49625e+15 5.17855e+15 1.55046e+13 
146 0 37.581 5.8268e+17 358.839 146.403 136.629 7460.51 -0.968458 0.31209 5.80866e+17 1.55046e+13 0 5.42663e+14 1.25588e+15 0 
150 0 37.808 5.862e+17 824.072 172.159 143.301 7427.26 2.63691 0.505913 5.78866e+17 0 0 2.15515e+15 5.17855e+15 0 
182 0 37.701 5.84541e+17 283.598 142.161 137.512 7461.82 0.0447003 0.893429 5.83316e+17 0 0 4.03121e+14 8.21746e+14 0 
186 0 37.815 5.86308e+17 775.969 173.772 141.192 7431.05 3.76273 2.97152 5.79951e+17 1.55046e+13 0 2.21716e+15 4.10873e+15 1.55046e+13 
218 0 37.659 5.83889e+17 269.492 141.374 137.073 7465.05 0.439999 0.0737861 5.82696e+17 0 0 3.56607e+14 8.37251e+14 0 
222 0 37.992 5.89052e+17 705.09 167.547 142.349 7437.16 4.46526 1.80635 5.83285e+17 3.10093e+13 0 1.79854e+15 3.92267e+15 1.55046e+13 
254 0 37.403 5.7992e+17 268.106 142.783 137.51 7465.43 1.19515 0.922474 5.7885e+17 0 0 3.56607e+14 7.13214e+14 0 
258 0 37.746 5.85238e+17 632.242 165.414 141.151 7441.31 3.64018 -0.422546 5.80168e+17 0 0 1.82955e+15 3.20946e+15 3.10093e+13 
290 0 37.677 5.84168e+17 283.039 143.03 138.089 7463.58 0.583548 -2.50056 5.82696e+17 0 0 3.56607e+14 1.10083e+15 1.55046e+13 
294 0 37.681 5.8423e+17 650.472 166.27 141.54 7440.31 4.51245 -0.258982 5.79781e+17 1.55046e+13 0 1.56597e+15 2.86836e+15 0 
326 0 37.688 5.84339e+17 276.27 138.692 137.746 7466.36 2.32537 0.321147 5.83192e+17 0 0 2.79084e+14 8.6826e+14 0 
330 0 37.668 5.84029e+17 625.62 165.254 140.718 7443.05 3.15121 -0.948336 5.79564e+17 0 0 1.42643e+15 3.03891e+15 0 
362 0 37.57 5.82509e+17 266.853 142.443 136.764 7464.89 0.605715 0.18172 5.81409e+17 0 0 2.63579e+14 8.37251e+14 0 
366 0 37.802 5.86107e+17 483.174 153.712 139.403 7450.47 3.7392 0.94596 5.82432e+17 0 0 1.06982e+15 2.60478e+15 0 
398 0 37.697 5.84479e+17 243.15 139.455 137.243 7464.94 2.77206 0.479557 5.83595e+17 0 0 3.10093e+14 5.73672e+14 0 
402 0 37.71 5.8468e+17 436.239 158.267 138.571 7453.83 2.41708 1.09653 5.81471e+17 1.55046e+13 0 1.02331e+15 2.17065e+15 0 
434 0 37.447 5.80602e+17 248.596 139.722 137.514 7466.34 0.531456 0.964945 5.7975e+17 0 0 2.0156e+14 6.51195e+14 0 
438 0 37.637 5.83548e+17 389.752 151.512 139.333 7457.95 2.92993 0.295013 5.81285e+17 0 0 8.6826e+14 1.39542e+15 0 
470 0 37.443 5.8054e+17 212.728 139.416 137.157 7467.92 0.848264 0.171872 5.79827e+17 0 0 1.86056e+14 5.27158e+14 0 
474 0 37.617 5.83238e+17 366.969 148.913 137.377 7459.06 2.55657 0.207546 5.8113e+17 1.55046e+13 0 8.21746e+14 1.27138e+15 0 
506 0 37.466 5.80897e+17 208.83 141.516 137.099 7467.28 1.0543 -0.0893834 5.80137e+17 0 0 1.55046e+14 6.04681e+14 0 
510 0 37.413 5.80075e+17 338.28 149.633 138.419 7459.35 4.22249 -0.46047 5.78168e+17 3.10093e+13 0 5.73672e+14 1.28689e+15 1.55046e+13 
542 0 37.524 5.81796e+17 203.13 138.92 136.653 7469.84 0.165368 -0.973204 5.813e+17 0 0 1.86056e+14 3.10093e+14 0 
546 0 37.58 5.82665e+17 272.488 149.214 137.904 7463.31 2.02398 -1.14777 5.81161e+17 0 0 6.04681e+14 8.99269e+14 0 
578 0 37.44 5.80494e+17 180.449 138.369 136.9 7471.45 0.840024 -0.922673 5.80184e+17 1.55046e+13 0 7.75232e+13 2.17065e+14 0 
582 0 37.511 5.81595e+17 275.025 146.299 138.004 7464.55 2.05099 0.374554 5.79827e+17 0 0 5.73672e+14 1.19386e+15 0 
614 0 37.565 5.82432e+17 185.764 137.932 136.87 7469.76 0.844448 -0.494528 5.82137e+17 0 0 6.20186e+13 2.3257e+14 0 
618 0 37.407 5.79982e+17 216.891 143.252 136.887 7468.63 2.50811 -0.985243 5.79176e+17 0 0 2.94588e+14 5.11653e+14 0 
3 0 39.138 6.06821e+17 321.119 146.863 137.751 7461.58 17.9536 0.310822 6.04681e+17 0 0 5.58167e+14 1.58147e+15 0 
7 0 41.753 6.47365e+17 1120.49 188.785 146.083 7408.12 30.9126 0.241267 6.36109e+17 4.65139e+13 0 3.349e+15 7.84535e+15 1.55046e+13 
39 0 37.484 5.81176e+17 419.58 155.355 139.258 7455.31 1.10821 -0.282168 5.78602e+17 0 0 8.21746e+14 1.75202e+15 0 
43 0 37.96 5.88556e+17 1250.77 197.639 150.401 7400.04 2.00504 0.899419 5.77657e+17 3.10093e+13 0 3.59708e+15 7.25617e+15 1.55046e+13 
75 0 37.613 5.83176e+17 426.329 146.438 139.151 7453.72 -0.137321 -0.245512 5.80401e+17 0 0 8.21746e+14 1.93808e+15 1.55046e+13 
79 0 38.175 5.9189e+17 1238.27 190.466 146.408 7403.32 3.41187 1.19921 5.81037e+17 3.10093e+13 0 3.48854e+15 7.30269e+15 3.10093e+13 
111 0 37.658 5.83874e+17 408.417 145.304 138.785 7455.2 1.31528 -1.07971 5.8144e+17 0 0 7.75232e+14 1.659e+15 0 
115 0 38.059 5.90091e+17 1134.19 187.225 146.797 7407.38 3.86913 -1.11285 5.80091e+17 3.10093e+13 0 3.64359e+15 6.32589e+15 0 
147 0 37.447 5.80602e+17 419.266 152.215 139.426 7455.92 1.91332 0.670925 5.77858e+17 0 0 9.61288e+14 1.76753e+15 1.55046e+13 
151 0 38.261 5.93223e+17 1105.45 199.09 145.129 7411.18 4.22333 1.95207 5.83874e+17 3.10093e+13 0 3.3335e+15 5.96929e+15 1.55046e+13 
183 0 37.458 5.80773e+17 395.106 146.156 138.319 7457.24 -0.834506 -2.36685 5.78323e+17 0 0 5.89176e+14 1.86056e+15 0 
187 0 37.878 5.87285e+17 986.222 178.541 146.226 7419.93 5.81386 0.526081 5.79098e+17 1.55046e+13 0 2.9924e+15 5.16305e+15 1.55046e+13 
219 0 37.595 5.82897e+17 366.187 143.638 137.041 7459.2 0.204145 -0.791842 5.80742e+17 0 0 4.80644e+14 1.6745e+15 0 
223 0 37.878 5.87285e+17 942.97 182.434 143.957 7419.34 7.08058 0.0679016 5.79083e+17 3.10093e+13 0 2.82185e+15 5.25607e+15 9.30279e+13 
255 0 37.602 5.83006e+17 343.753 142.586 137.445 7460.22 0.328875 1.07952 5.81052e+17 0 0 4.3413e+14 1.51946e+15 0 
259 0 37.889 5.87455e+17 887.866 172.185 143.098 7424.28 7.13198 0.00842712 5.80432e+17 0 0 2.48074e+15 4.52736e+15 1.55046e+13 
291 0 37.419 5.80168e+17 324.028 141.505 137.099 7460.43 0.943302 -0.30887 5.78432e+17 0 0 4.18625e+14 1.31789e+15 0 
295 0 38.028 5.89611e+17 774.711 178.108 145.269 7432.38 5.37446 0.997891 5.83145e+17 0 0 2.13964e+15 4.29479e+15 3.10093e+13 
327 0 37.449 5.80633e+17 280.321 141.946 137.232 7464.16 0.587643 0.221038 5.79409e+17 0 0 3.56607e+14 8.6826e+14 0 
331 0 37.789 5.85905e+17 700.651 166.572 140.19 7436.65 7.01689 0.121582 5.80478e+17 0 0 1.92258e+15 3.47304e+15 3.10093e+13 
363 0 37.509 5.81564e+17 291.712 142.859 137.923 7463.66 0.913831 -0.797385 5.80075e+17 0 0 5.27158e+14 9.45783e+14 1.55046e+13 
367 0 37.817 5.86339e+17 548.394 166.509 142.981 7445.35 4.32656 0.268211 5.81672e+17 0 0 1.39542e+15 3.27148e+15 0 
399 0 37.433 5.80385e+17 306.612 145.086 137.934 7463.43 0.74259 -0.96674 5.78881e+17 0 0 4.18625e+14 1.08533e+15 0 
403 0 37.4 5.79874e+17 530.209 158.775 140.122 7446.7 5.23153 -0.786886 5.75796e+17 0 0 1.41092e+15 2.62028e+15 4.65139e+13 
435 0 37.593 5.82866e+17 272.721 139.456 137.109 7464.33 2.29143 -2.20611 5.81688e+17 0 0 3.41102e+14 8.37251e+14 0 
439 0 37.73 5.8499e+17 483.099 154.245 139.447 7451.43 3.94693 0.592911 5.81533e+17 0 0 1.16285e+15 2.29469e+15 0 
471 0 37.505 5.81502e+17 235.59 140.227 136.477 7466.52 1.45182 0.482395 5.80432e+17 1.55046e+13 0 4.03121e+14 6.51195e+14 0 
475 0 37.724 5.84897e+17 402.427 149.738 139.192 7454.27 3.70706 1.12639 5.81967e+17 3.10093e+13 0 8.99269e+14 2.0001e+15 0 
507 0 37.52 5.81734e+17 228.096 143.646 136.578 7467.54 1.39492 -0.224186 5.80928e+17 0 0 2.48074e+14 5.58167e+14 0 
511 0 37.638 5.83564e+17 355.487 155.885 138.233 7459.45 2.87215 0.3508 5.81223e+17 0 0 7.28718e+14 1.61248e+15 0 
543 0 37.34 5.78943e+17 198.197 140.869 136.798 7468.91 0.159273 0.0814808 5.78292e+17 1.55046e+13 0 1.70551e+14 4.65139e+14 0 
547 0 37.608 5.83099e+17 343.462 152.489 138.089 7458.96 2.7546 0.713857 5.80788e+17 0 0 7.75232e+14 1.53496e+15 0 
579 0 37.376 5.79502e+17 197.555 139.94 137.484 7468.87 0.816288 -0.484669 5.79052e+17 1.55046e+13 0 1.24037e+14 3.10093e+14 0 
583 0 37.485 5.81192e+17 306.569 149.621 138.175 7462.22 2.18757 -1.04506 5.79331e+17 3.10093e+13 0 6.3569e+14 1.19386e+15 0 
615 0 37.331 5.78804e+17 197.907 139.561 137.497 7469.98 1.39716 -0.175819 5.78292e+17 0 0 2.0156e+14 2.94588e+14 1.55046e+13 
619 0 37.382 5.79595e+17 315.349 148.306 139.731 7461.04 3.4669 -0.657033 5.77765e+17 0 0 6.3569e+14 1.19386e+15 0 
4 0 39.883 6.18372e+17 508.452 153.857 139.795 7449.41 23.2104 -1.22028 6.14604e+17 0 0 1.24037e+15 2.51175e+15 1.55046e+13 
8 0 42.477 6.58591e+17 1613.86 219.784 154.035 7376.33 32.6234 -0.612522 6.42295e+17 1.55046e+13 0 5.96929e+15 1.02331e+16 7.75232e+13 
40 0 37.896 5.87564e+17 482.656 152.032 138.559 7451.63 0.864004 -0.77737 5.8423e+17 0 0 9.76793e+14 2.35671e+15 0 
44 0 38.653 5.99301e+17 1830.58 226.371 150.608 7360.71 3.65873 1.17298 5.82323e+17 1.55046e+13 0 5.98479e+15 1.09618e+16 1.55046e+13 
76 0 37.734 5.85052e+17 511.86 159.626 139.952 7447.73 -0.576564 -0.361491 5.81068e+17 1.55046e+13 0 1.24037e+15 2.71331e+15 1.55046e+13 
80 0 38.331 5.94308e+17 1754.75 214.844 152.114 7368.85 6.47808 0.932724 5.78726e+17 9.30279e+13 0 5.72121e+15 9.75242e+15 1.55046e+13 
112 0 37.488 5.81238e+17 497.048 148.835 139.421 7451.76 1.50888 -0.0598496 5.78122e+17 1.55046e+13 0 1.03881e+15 2.06212e+15 0 
116 0 38.576 5.98107e+17 1668.2 217.106 150.633 7371.91 8.29429 0.837976 5.83037e+17 3.10093e+13 0 5.07002e+15 9.90747e+15 6.20186e+13 
148 0 37.724 5.84897e+17 482.694 145.837 139.825 7451.64 0.459696 1.34496 5.8161e+17 1.55046e+13 0 7.44223e+14 2.52726e+15 0 
152 0 38.127 5.91146e+17 1524.28 225.513 148.885 7382.4 8.10508 -1.26207 5.77579e+17 3.10093e+13 0 4.71341e+15 8.77563e+15 4.65139e+13 
184 0 37.784 5.85827e+17 458.965 153.427 138.66 7453.61 1.25617 -1.31505 5.82587e+17 0 0 1.0078e+15 2.23267e+15 0 
188 0 38.239 5.92882e+17 1466.48 207.344 148.943 7384.15 8.37606 3.08539 5.79889e+17 3.10093e+13 0 4.41882e+15 8.48104e+15 6.20186e+13 
220 0 37.7 5.84525e+17 417.594 151.127 139.372 7456.78 0.635979 -0.481432 5.81905e+17 3.10093e+13 0 8.83765e+14 1.69001e+15 1.55046e+13 
224 0 38.287 5.93626e+17 1302.47 200.389 148.029 7394.8 8.58498 -0.587205 5.81703e+17 6.20186e+13 0 3.98469e+15 7.81434e+15 6.20186e+13 
256 0 37.615 5.83207e+17 406.306 155.539 137.795 7455.66 2.75839 0.517586 5.80711e+17 0 0 7.44223e+14 1.75202e+15 0 
260 0 38.015 5.89409e+17 1146.41 195.236 146.519 7405.64 10.9722 1.50872 5.79533e+17 4.65139e+13 0 3.44203e+15 6.37241e+15 1.55046e+13 
292 0 37.577 5.82618e+17 400.985 145.647 139.371 7457.65 0.824142 0.338013 5.80184e+17 1.55046e+13 0 7.28718e+14 1.69001e+15 0 
296 0 38.02 5.89487e+17 1049.6 192.993 147.633 7412.53 10.8589 -1.11216 5.80975e+17 6.20186e+13 0 3.05441e+15 5.36461e+15 3.10093e+13 
328 0 37.565 5.82432e+17 324.331 143.966 138.43 7461.46 0.990634 0.972471 5.80571e+17 0 0 4.49635e+14 1.41092e+15 0 
332 0 37.908 5.8775e+17 877.079 181.693 144.05 7424.9 10.1094 0.308466 5.80292e+17 1.55046e+13 0 2.55827e+15 4.88396e+15 0 
364 0 37.686 5.84308e+17 325.595 147.961 137.328 7460.52 1.7051 -0.0732275 5.82587e+17 1.55046e+13 0 5.58167e+14 1.14734e+15 0 
368 0 37.85 5.86851e+17 769.752 175.833 143.486 7431.4 6.3582 0.762118 5.80649e+17 1.55046e+13 0 2.20166e+15 3.96919e+15 1.55046e+13 
400 0 37.447 5.80602e+17 310.679 144.904 138.292 7461.31 1.37841 -0.00929466 5.7899e+17 0 0 4.65139e+14 1.14734e+15 0 
404 0 38.17 5.91812e+17 722.638 175.353 140.381 7434.63 9.88223 -0.650016 5.8637e+17 3.10093e+13 0 1.82955e+15 3.58157e+15 0 
436 0 37.635 5.83517e+17 295.071 146.895 137.825 7462.94 1.9406 -0.597498 5.81905e+17 0 0 4.3413e+14 1.17835e+15 0 
440 0 37.614 5.83192e+17 559.794 163.946 142.095 7444.46 6.14825 1.31226 5.78587e+17 3.10093e+13 0 1.50395e+15 3.06992e+15 0 
472 0 37.811 5.86246e+17 276.666 143.479 138.134 7465.06 1.59806 -0.394235 5.84773e+17 0 0 4.80644e+14 9.92297e+14 0 
476 0 37.501 5.8144e+17 533.34 160.44 140.356 7446.23 5.09585 0.147714 5.7747e+17 0 0 1.45744e+15 2.51175e+15 0 
508 0 37.456 5.80742e+17 257.903 143.899 137.678 7464.73 1.80546 -0.0162009 5.79672e+17 0 0 3.41102e+14 7.28718e+14 0 
512 0 37.573 5.82556e+17 414.051 168.376 140.502 7453.88 5.99848 0.380745 5.79455e+17 0 0 1.08533e+15 2.0001e+15 1.55046e+13 
544 0 37.487 5.81223e+17 246.245 145.696 138.149 7466.59 2.13998 -0.065336 5.80246e+17 1.55046e+13 0 2.48074e+14 6.97709e+14 1.55046e+13 
548 0 37.426 5.80277e+17 421.232 150.968 139.295 7455 3.46841 -1.04821 5.77114e+17 1.55046e+13 0 9.92297e+14 2.15515e+15 0 
580 0 37.552 5.8223e+17 216.439 142.13 137.015 7468.71 0.749336 0.475677 5.81517e+17 0 0 2.48074e+14 4.65139e+14 0 
584 0 37.819 5.8637e+17 376.134 146.532 138.032 7458.55 5.80442 -1.11124 5.8406e+17 1.55046e+13 0 7.28718e+14 1.55046e+15 1.55046e+13 
616 0 37.512 5.8161e+17 193.405 141.774 137.437 7469.46 0.872812 -0.564513 5.80975e+17 0 0 2.3257e+14 4.03121e+14 0 
620 0 37.511 5.81595e+17 327.718 149.772 137.847 7459.45 4.32537 -0.634438 5.79765e+17 0 0 6.667e+14 1.14734e+15 1.55046e+13 
10 0 44.754 6.93895e+17 3345.55 325.717 166.597 7255.49 35.0036 2.47385 6.5825e+17 4.65139e+13 0 1.28844e+16 2.26523e+16 6.20186e+13 
46 0 40.007 6.20294e+17 3672.53 344.339 173.491 7231.09 7.78836 -0.331332 5.8451e+17 1.24037e+14 0 1.34735e+16 2.21096e+16 7.75232e+13 
82 0 39.916 6.18883e+17 3502.87 348.08 173.564 7241.44 11.5512 -1.87338 5.85207e+17 1.24037e+14 0 1.27138e+16 2.06832e+16 1.55046e+14 
118 0 39.253 6.08604e+17 3581.14 310.421 171.085 7242.47 20.0185 -1.94839 5.76757e+17 1.24037e+14 0 1.21866e+16 1.93808e+16 1.55046e+14 
154 0 39.296 6.0927e+17 3187.55 336.314 170.365 7263.4 19.3907 0.866782 5.79626e+17 1.39542e+14 0 1.09618e+16 1.8466e+16 7.75232e+13 
190 0 38.954 6.03968e+17 2794.1 294.384 165.074 7295.2 19.8238 -0.162308 5.78308e+17 1.08533e+14 0 9.48884e+15 1.60008e+16 6.20186e+13 
226 0 38.871 6.02681e+17 2350.98 296.741 160.998 7323.38 20.3219 -0.499592 5.80664e+17 3.10093e+13 0 8.10893e+15 1.38146e+16 6.20186e+13 
262 0 38.732 6.00526e+17 2070.45 264.27 157.576 7341.06 22.3492 -0.430884 5.81719e+17 0 0 6.93058e+15 1.18455e+16 3.10093e+13 
298 0 38.687 5.99828e+17 1821.34 246.272 154.052 7361.02 21.1431 0.644437 5.83812e+17 6.20186e+13 0 6.12433e+15 9.81444e+15 1.55046e+13 
334 0 38.152 5.91533e+17 1443.63 217.271 152.242 7385.5 16.4627 -1.12004 5.78199e+17 0 0 4.88396e+15 8.3415e+15 1.08533e+14 
370 0 38.358 5.94727e+17 1170.98 202.681 149.303 7402.28 16 -1.40124 5.83672e+17 6.20186e+13 0 3.82965e+15 7.14764e+15 1.55046e+13 
406 0 37.901 5.87642e+17 1004.31 197.343 148.52 7411.56 14.492 -1.09189 5.78044e+17 4.65139e+13 0 3.51955e+15 5.96929e+15 6.20186e+13 
442 0 37.73 5.8499e+17 850.036 186.066 142.045 7424.79 11.8439 0.253346 5.77781e+17 1.55046e+13 0 2.3412e+15 4.82194e+15 3.10093e+13 
478 0 37.843 5.86742e+17 746.462 172.038 143.649 7433.89 10.9469 -0.0201459 5.80804e+17 3.10093e+13 0 2.21716e+15 3.69011e+15 0 
514 0 37.579 5.82649e+17 657.562 176.328 144.585 7438.29 10.7779 0.195446 5.77781e+17 1.55046e+13 0 1.62799e+15 3.20946e+15 1.55046e+13 
550 0 37.632 5.83471e+17 491.469 163.923 143.298 7448.95 6.06609 0.645513 5.79672e+17 1.55046e+13 0 1.36441e+15 2.41872e+15 0 
586 0 37.754 5.85362e+17 472.28 163.537 140.606 7451.62 6.80976 -0.35101 5.8175e+17 0 0 1.30239e+15 2.27918e+15 3.10093e+13 
622 0 37.622 5.83316e+17 385.977 162.355 139.2 7457.35 5.9215 0.323562 5.80509e+17 0 0 9.76793e+14 1.82955e+15 0 
11 0 45.797 7.10066e+17 4807.52 403.819 186.493 7144.38 37.9756 -1.95792 6.55939e+17 1.39542e+14 0 2.07762e+16 3.31644e+16 4.65139e+13 
47 0 40.961 6.35086e+17 5553.5 443.656 190.966 7090.72 13.1374 0.566995 5.80959e+17 2.0156e+14 0 2.03731e+16 3.3459e+16 9.30279e+13 
83 0 40.953 6.34962e+17 5306.31 465.721 199.766 7108.77 22.5655 -1.19363 5.83037e+17 1.08533e+14 0 1.98614e+16 3.1862e+16 9.30279e+13 
119 0 40.968 6.35194e+17 4911.31 439.017 188.404 7138.76 27.7668 -0.0711107 5.87517e+17 2.0156e+14 0 1.8466e+16 2.88386e+16 1.70551e+14 
155 0 40.548 6.28682e+17 4528.56 424.138 189.043 7164.59 31.4069 -0.962949 5.84897e+17 1.39542e+14 0 1.6838e+16 2.6699e+16 1.08533e+14 
191 0 40.077 6.2138e+17 3851.73 373.832 179.217 7215.46 32.0313 -3.49647 5.8451e+17 1.08533e+14 0 1.36441e+16 2.29779e+16 1.39542e+14 
227 0 39.684 6.15286e+17 3448.42 350.328 172.903 7242.72 33.9656 0.974274 5.82091e+17 1.55046e+14 0 1.28999e+16 2.0032e+16 1.08533e+14 
263 0 39.291 6.09193e+17 3001.34 330.781 168.206 7276.13 32.9546 0.735955 5.81998e+17 1.55046e+14 0 1.0016e+16 1.70086e+16 1.55046e+13 
299 0 39.032 6.05177e+17 2425.35 279.714 156.365 7318.27 28.114 0.816967 5.83037e+17 6.20186e+13 0 8.07792e+15 1.39077e+16 9.30279e+13 
335 0 38.625 5.98867e+17 1969.33 246.437 157.485 7347.67 26.2809 0.0801207 5.80664e+17 1.39542e+14 0 6.58947e+15 1.14424e+16 3.10093e+13 
371 0 38.157 5.91611e+17 1587.68 223.73 154.225 7374.83 22.5537 -0.454282 5.76013e+17 1.55046e+13 0 5.78323e+15 9.76793e+15 3.10093e+13 
407 0 38.536 5.97487e+17 1356.72 211.081 148.624 7391.15 21.4044 -0.0487609 5.85378e+17 3.10093e+13 0 4.52736e+15 7.48874e+15 6.20186e+13 
443 0 38.01 5.89332e+17 1149.87 218.618 149.025 7402.94 19.3216 -0.531902 5.79129e+17 1.55046e+13 0 3.93818e+15 6.21736e+15 3.10093e+13 
479 0 38.04 5.89797e+17 857.064 188.942 144.884 7422.81 13.8342 -0.717215 5.82571e+17 1.55046e+13 0 3.0079e+15 4.13974e+15 6.20186e+13 
515 0 37.765 5.85533e+17 698.153 178.594 141.772 7436.07 11.1098 -0.49925 5.79455e+17 1.55046e+13 0 2.15515e+15 3.90717e+15 0 
551 0 37.777 5.85719e+17 626.89 167.404 142.953 7440.53 11.0649 0.298467 5.80432e+17 1.55046e+13 0 1.84505e+15 3.42653e+15 0 
587 0 37.648 5.83719e+17 511.236 163.542 140.654 7448.17 9.10411 -1.25956 5.7975e+17 0 0 1.61248e+15 2.35671e+15 0 
623 0 37.441 5.80509e+17 429.4 154.811 139.932 7452.38 8.87678 -1.32761 5.77207e+17 0 0 1.25588e+15 2.03111e+15 1.55046e+13 
12 0 48.098 7.45742e+17 7358.08 609.16 220.927 6936.78 44.1103 2.53867 6.59164e+17 2.17065e+14 0 3.42187e+16 5.18475e+16 2.94588e+14 
48 0 43.256 6.70669e+17 8179.88 622.454 233.529 6874.44 21.1922 0.50292 5.8651e+17 2.63579e+14 0 3.22962e+16 5.13514e+16 2.48074e+14 
84 0 42.968 6.66204e+17 7936.45 630.715 229.057 6889.84 34.1525 1.02327 5.85533e+17 3.41102e+14 0 3.02186e+16 4.99405e+16 1.70551e+14 
120 0 42.261 6.55242e+17 7303.02 619.974 218.908 6946.15 46.7985 -2.45305 5.83874e+17 1.55046e+14 0 2.78618e+16 4.31804e+16 1.70551e+14 
156 0 42.026 6.51598e+17 6501.27 553.275 222.911 7004.02 54.2376 -0.287925 5.86138e+17 2.79084e+14 0 2.51795e+16 3.9909e+16 9.30279e+13 
192 0 41.178 6.3845e+17 5867.04 512.711 203.033 7057.15 58.0881 0.0212726 5.82215e+17 1.24037e+14 0 2.19546e+16 3.40637e+16 9.30279e+13 
228 0 40.96 6.3507e+17 4741.09 425.293 186.433 7147.66 56.3379 -2.44489 5.8944e+17 1.70551e+14 0 1.71016e+16 2.81409e+16 2.17065e+14 
264 0 40.141 6.22372e+17 4032.98 385.119 182.148 7196.91 50.1532 0.874629 5.82416e+17 1.55046e+14 0 1.59078e+16 2.38772e+16 1.55046e+13 
300 0 39.741 6.1617e+17 3143.88 329.885 168.584 7261.65 45.0267 -1.80435 5.85827e+17 3.10093e+13 0 1.1737e+16 1.85591e+16 1.55046e+13 
336 0 39.034 6.05208e+17 2664.2 326.627 170.058 7297.84 39.8363 -0.55072 5.79672e+17 7.75232e+13 0 1.03571e+16 1.5024e+16 7.75232e+13 
372 0 38.976 6.04309e+17 2006.58 285.877 162.339 7341.26 31.0234 1.949 5.85176e+17 3.10093e+13 0 7.55076e+15 1.14889e+16 6.20186e+13 
408 0 38.463 5.96355e+17 1672.28 240.58 155.632 7366.72 28.6644 2.03105 5.80773e+17 4.65139e+13 0 5.76773e+15 9.70591e+15 6.20186e+13 
13 0 52.79 8.1849e+17 11141 935.511 283.477 6591.09 50.3109 -4.76117 6.796e+17 3.72111e+14 0 5.79564e+16 8.0283e+16 2.79084e+14 
49 0 47.087 7.30067e+17 12433.6 978.54 307.284 6468.49 46.5052 -1.16688 5.93285e+17 4.80644e+14 0 5.59408e+16 8.0097e+16 2.63579e+14 
85 0 46.904 7.2723e+17 11816.7 968.218 301.109 6530.86 60.2454 -0.570176 5.98402e+17 5.89176e+14 0 5.22041e+16 7.57557e+16 2.79084e+14 
121 0 45.748 7.09306e+17 10805.8 877.432 286.219 6627.18 78.3019 -0.0938657 5.94557e+17 3.87616e+14 0 4.63434e+16 6.78018e+16 2.17065e+14 
157 0 44.513 6.90158e+17 9568.23 782.354 261.748 6743.66 90.503 3.79784 5.90959e+17 2.63579e+14 0 4.05446e+16 5.80494e+16 3.41102e+14 
193 0 43.28 6.71041e+17 8156.46 709.376 242.122 6864.83 94.4348 -1.24408 5.88324e+17 3.25598e+14 0 3.32575e+16 4.88551e+16 2.79084e+14 
229 0 42.365 6.56854e+17 7001.09 594.732 215.72 6965.27 89.213 -0.492115 5.88215e+17 3.41102e+14 0 2.79704e+16 4.02035e+16 1.24037e+14 
265 0 41.191 6.38652e+17 5384.29 508.624 207.768 7085.24 76.3022 -1.65085 5.84417e+17 9.30279e+13 0 2.14739e+16 3.25442e+16 1.24037e+14 
301 0 40.168 6.22791e+17 4335.95 448.319 193.132 7169.38 67.5792 -1.03055 5.80091e+17 1.24037e+14 0 1.71636e+16 2.53656e+16 4.65139e+13 
337 0 39.914 6.18852e+17 3550.96 387.354 180.627 7231.65 61.0091 0.927165 5.84355e+17 3.10093e+13 0 1.39697e+16 2.04196e+16 7.75232e+13 
373 0 39.331 6.09813e+17 2663.67 319.413 167.428 7294.39 49.2228 -1.63905 5.83858e+17 6.20186e+13 0 1.0047e+16 1.57837e+16 6.20186e+13 
409 0 38.735 6.00572e+17 2128.88 296.958 159.545 7334.33 41.2626 -0.441344 5.80292e+17 4.65139e+13 0 8.06241e+15 1.20781e+16 9.30279e+13 
445 0 38.669 5.99549e+17 1675.72 248.14 155.308 7367.91 33.3437 -0.441788 5.84091e+17 3.10093e+13 0 6.46544e+15 8.94618e+15 1.55046e+13 
481 0 38.611 5.9865e+17 1388.25 238.292 150.695 7386.36 28.8044 0.145387 5.85176e+17 7.75232e+13 0 4.60488e+15 8.72911e+15 6.20186e+13 
517 0 38.176 5.91905e+17 1093.13 222.074 154.478 7404.93 23.4733 1.0774 5.80975e+17 1.55046e+13 0 4.27928e+15 6.60498e+15 3.10093e+13 
553 0 37.936 5.88184e+17 761.419 187.564 145.601 7428.65 14.2555 0.0513543 5.81037e+17 3.10093e+13 0 2.71331e+15 4.40332e+15 0 
589 0 37.891 5.87486e+17 665.443 179.812 145.472 7434.7 15.3299 0.188237 5.81037e+17 0 0 2.52726e+15 3.90717e+15 1.55046e+13 
625 0 37.64 5.83595e+17 584.361 181.071 143.689 7442.44 13.8404 -0.806642 5.78246e+17 1.55046e+13 0 2.31019e+15 3.02341e+15 0 
444 0 38.449 5.96138e+17 1426.04 238.361 153.385 7385.52 24.885 1.90382 5.82789e+17 3.10093e+13 0 4.9925e+15 8.31049e+15 1.55046e+13 
480 0 38.062 5.90138e+17 1172.57 213.971 150.368 7402.61 21.3028 0.972246 5.79191e+17 4.65139e+13 0 4.09323e+15 6.77553e+15 3.10093e+13 
516 0 38.001 5.89192e+17 884.578 197.477 146.253 7419.46 18.4732 -0.103816 5.80788e+17 3.10093e+13 0 3.16295e+15 5.20956e+15 0 
552 0 38.124 5.91099e+17 756.906 191.153 143.568 7431.7 15.1527 -1.82478 5.84572e+17 0 0 2.48074e+15 4.03121e+15 1.55046e+13 
588 0 37.776 5.85703e+17 696.005 177.43 143.57 7437.51 14.5133 0.0788389 5.7975e+17 3.10093e+13 0 2.35671e+15 3.56607e+15 0 