ITEM: TIMESTEP
15000
ITEM: NUMBER OF CELLS
1036
ITEM: BOX BOUNDS oo ao pp
-10 10
0 10
-0.5 0.5
ITEM: CELLS id proc f_avg_n f_avg_nrho f_avg_temp_tra f_avg_temp_rot f_avg_temp_vib f_avg_vel[1] f_avg_vel[2] f_avg_vel[3] f_avg_nrho_CO2 f_avg_nrho_O2 f_avg_nrho_C2 f_avg_nrho_CO f_avg_nrho_O f_avg_nrho_C 
1 0 37.93 5.88091e+17 189.437 143.618 135.981 7465.7 5.92354 -0.561346 5.87704e+17 0 0 0 3.87616e+14 0 
5 0 40.11 6.21891e+17 435.425 166.093 141.367 7449.72 29.9797 -2.84517 6.17705e+17 0 0 1.78303e+15 2.40322e+15 0 
9 0 42.94 6.65769e+17 1953.06 273.112 153.25 7351.02 34.0393 4.40508 6.44063e+17 7.75232e+13 0 8.6826e+15 1.29464e+16 0 
37 0 37.58 5.82665e+17 319.385 150.506 137.165 7465.79 -0.00659413 2.26495 5.81269e+17 0 0 6.97709e+14 6.97709e+14 0 
41 0 37.555 5.82277e+17 690.403 175.18 138.989 7438.75 -1.2867 2.09504 5.7747e+17 0 0 1.70551e+15 3.10093e+15 0 
45 0 38.28 5.93518e+17 2432.77 248.62 157.547 7320.26 2.32604 -1.72299 5.73284e+17 2.3257e+14 0 7.13214e+15 1.27913e+16 7.75232e+13 
73 0 37.315 5.78556e+17 344.652 139.964 136.864 7464.96 0.598286 2.01866 5.77548e+17 0 0 4.65139e+14 5.42663e+14 0 
77 0 37.77 5.8561e+17 597.715 152.013 138.658 7445.16 -0.608949 -0.495988 5.80804e+17 0 0 1.47294e+15 3.3335e+15 0 
81 0 38.645 5.99177e+17 2390.81 243.812 170.26 7323.37 7.23205 -4.36835 5.76695e+17 0 0 7.6748e+15 1.48069e+16 0 
109 0 37.655 5.83827e+17 274.844 142.086 138.948 7465.01 -1.14638 -0.478619 5.82742e+17 0 0 3.87616e+14 6.97709e+14 0 
113 0 37.705 5.84603e+17 609.085 150.091 138.455 7441.82 4.75474 0.58071 5.79719e+17 0 0 1.24037e+15 3.64359e+15 0 
117 0 38.975 6.04293e+17 1915.54 255.616 151.007 7353.97 6.36587 2.07465 5.85533e+17 0 0 5.96929e+15 1.27138e+16 7.75232e+13 
145 0 37.45 5.80649e+17 298.048 142.132 138.114 7463.54 -1.72874 2.45392 5.79486e+17 0 0 3.87616e+14 7.75232e+14 0 
149 0 37.595 5.82897e+17 537.225 162.772 137.743 7448.49 1.23772 -2.86823 5.79098e+17 0 0 1.0078e+15 2.79084e+15 0 
153 0 38.74 6.0065e+17 2043.44 256.023 151.696 7341.77 9.34625 -0.729632 5.81269e+17 1.55046e+14 0 6.82204e+15 1.23262e+16 7.75232e+13 
181 0 37.56 5.82354e+17 320.896 138.657 135.555 7462.19 0.253616 -0.998258 5.80959e+17 0 0 7.75232e+13 1.31789e+15 0 
185 0 37.67 5.8406e+17 579.447 162.91 140.457 7442.87 -0.169554 2.19519 5.80184e+17 0 0 1.08533e+15 2.71331e+15 7.75232e+13 
189 0 38.59 5.98324e+17 1810.92 236.387 153.838 7363.37 9.95459 -0.897528 5.83905e+17 7.75232e+13 0 4.88396e+15 9.45783e+15 0 
217 0 37.295 5.78246e+17 232.45 144.199 136.457 7463.58 2.16549 -1.07998 5.77703e+17 0 0 1.55046e+14 3.87616e+14 0 
221 0 37.275 5.77936e+17 565.02 169.413 138.592 7444.92 0.0780593 0.951514 5.7437e+17 0 0 7.75232e+14 2.71331e+15 7.75232e+13 
225 0 38.68 5.9972e+17 1844.39 245.7 159.282 7356.21 13.3927 2.60267 5.8468e+17 7.75232e+13 0 4.88396e+15 1.0078e+16 0 
253 0 37.41 5.80029e+17 294.743 136.683 136.872 7460.27 1.02581 2.0711 5.79098e+17 0 0 3.10093e+14 6.20186e+14 0 
257 0 37.64 5.83595e+17 629.089 165.515 137.979 7443.62 4.01779 -1.11201 5.79253e+17 0 0 8.52755e+14 3.41102e+15 7.75232e+13 
261 0 38.12 5.91037e+17 1534.49 238.467 151.444 7382.63 18.5665 -3.8103 5.77315e+17 7.75232e+13 0 4.18625e+15 9.45783e+15 0 
289 0 37.415 5.80106e+17 222.395 138.714 137.346 7469.97 -1.7704 0.366213 5.79331e+17 0 0 1.55046e+14 6.20186e+14 0 
293 0 37.845 5.86773e+17 589.365 149.799 141.661 7445.18 0.205027 -4.20869 5.82432e+17 0 0 1.0078e+15 3.3335e+15 0 
297 0 37.9 5.87626e+17 1291.53 238.892 149.773 7394.13 12.9371 1.52326 5.7561e+17 1.55046e+14 0 3.95368e+15 7.90737e+15 0 
325 0 37.135 5.75765e+17 244.334 141.448 135.706 7466.45 1.40644 3.07624 5.74912e+17 0 0 3.10093e+14 5.42663e+14 0 
329 0 37.915 5.87859e+17 507.079 152.286 140.184 7448.51 -0.435251 -2.54058 5.83982e+17 0 0 1.31789e+15 2.55827e+15 0 
333 0 37.64 5.83595e+17 1068.84 228.983 148.078 7410.21 10.4355 2.09535 5.73982e+17 1.55046e+14 0 3.79864e+15 5.65919e+15 0 
361 0 37.465 5.80881e+17 194.919 134.549 136.772 7469.81 -3.49553 1.78479 5.80416e+17 0 0 7.75232e+13 3.87616e+14 0 
365 0 37.49 5.81269e+17 400.068 158.556 139.338 7457.32 -0.22188 3.4494 5.78711e+17 0 0 1.24037e+15 1.31789e+15 0 
369 0 38.45 5.96154e+17 1020.27 185.71 151.799 7417.5 10.9731 -3.46623 5.86386e+17 0 0 3.17845e+15 6.58947e+15 0 
397 0 37.475 5.81037e+17 199.773 137.9 135.821 7466.76 -3.19661 -3.56799 5.80494e+17 0 0 7.75232e+13 4.65139e+14 0 
401 0 37.455 5.80726e+17 397.748 154.899 136.25 7455.34 1.91191 0.328919 5.78788e+17 0 0 1.0078e+15 9.30279e+14 0 
405 0 37.085 5.7499e+17 1026.57 184.305 141.923 7416.05 14.9354 -0.0602002 5.66927e+17 7.75232e+13 0 2.40322e+15 5.58167e+15 0 
433 0 37.64 5.83595e+17 241.473 139.744 136.427 7466.05 0.578913 -0.492978 5.82742e+17 0 0 3.10093e+14 5.42663e+14 0 
437 0 37.385 5.79641e+17 395.365 149.236 137.265 7455.75 2.68652 1.17417 5.76928e+17 0 0 7.75232e+14 1.93808e+15 0 
441 0 38.06 5.90107e+17 719.74 160.278 141.047 7434.51 9.36341 -1.38206 5.84525e+17 0 0 1.62799e+15 3.95368e+15 0 
469 0 37.69 5.8437e+17 193.504 138.042 137.935 7468.58 -0.498255 -1.01309 5.8406e+17 0 0 0 3.10093e+14 0 
473 0 37.675 5.84137e+17 358.35 154.52 137.133 7459.32 0.191659 0.610632 5.82354e+17 0 0 5.42663e+14 1.24037e+15 0 
477 0 37.895 5.87548e+17 589.296 170.07 139.817 7442.07 10.2342 0.140052 5.81579e+17 7.75232e+13 0 2.09313e+15 3.79864e+15 0 
505 0 37.475 5.81037e+17 226.216 148.672 136.547 7464.92 1.72888 -0.947086 5.80106e+17 0 0 4.65139e+14 4.65139e+14 0 
509 0 37.29 5.78168e+17 350.57 136.088 137.6 7456.56 0.558112 0.675942 5.76618e+17 0 0 5.42663e+14 1.0078e+15 0 
513 0 37.98 5.88866e+17 482.992 158.66 138.696 7448.91 6.02983 1.03234 5.84525e+17 0 0 1.16285e+15 3.17845e+15 0 
541 0 37.245 5.7747e+17 258.01 139.374 136.027 7467.43 0.085054 -0.271304 5.76463e+17 0 0 1.55046e+14 8.52755e+14 0 
545 0 37.41 5.80029e+17 285.897 142.223 137.526 7466.48 0.61696 -0.245699 5.78711e+17 0 0 3.87616e+14 9.30279e+14 0 
549 0 37.84 5.86696e+17 556.27 161.549 143.11 7444.62 12.0043 -0.396045 5.82432e+17 0 0 1.55046e+15 2.63579e+15 7.75232e+13 
577 0 37.27 5.77858e+17 236.362 137.345 135.525 7466.98 -0.928173 -3.08462 5.77548e+17 0 0 0 3.10093e+14 0 
581 0 37.63 5.8344e+17 260.792 141.268 139.335 7468.05 1.06621 2.64352 5.82277e+17 7.75232e+13 0 3.87616e+14 6.97709e+14 0 
585 0 37.585 5.82742e+17 342.599 159.567 138.034 7459.13 4.97115 -0.627045 5.80959e+17 0 0 6.20186e+14 1.16285e+15 0 
613 0 37.495 5.81347e+17 221.69 137.727 137.983 7464.93 2.27026 0.426022 5.80959e+17 0 0 1.55046e+14 2.3257e+14 0 
617 0 37.405 5.79951e+17 247.855 137.655 137.946 7467.79 4.81101 -1.34889 5.79253e+17 0 0 1.55046e+14 5.42663e+14 0 
621 0 37.53 5.81889e+17 385.859 142.283 138.449 7454.4 5.18968 -0.776021 5.79719e+17 7.75232e+13 0 6.97709e+14 1.39542e+15 0 
2 0 38.38 5.95068e+17 370.825 144.912 137.893 7457.83 14.1484 -4.18815 5.92587e+17 0 0 1.0078e+15 1.47294e+15 0 
6 0 41.165 6.38249e+17 770.247 156.877 142.76 7438.27 31.7172 -0.365733 6.31272e+17 0 0 1.62799e+15 5.3491e+15 0 
38 0 37.46 5.80804e+17 319.943 150.055 137.971 7461.19 -2.08806 -1.71406 5.79564e+17 0 0 5.42663e+14 6.97709e+14 0 
42 0 37.46 5.80804e+17 968.842 162.314 145.994 7421.17 4.77489 0.450255 5.74214e+17 0 0 2.3257e+15 4.26378e+15 0 
74 0 37.705 5.84603e+17 387.481 142.527 140.612 7458.93 -0.588858 0.187533 5.82509e+17 0 0 6.20186e+14 1.47294e+15 0 
78 0 38.05 5.89952e+17 856.089 149.144 138.869 7428.52 -0.19353 -1.45688 5.82122e+17 0 0 2.0156e+15 5.73672e+15 7.75232e+13 
110 0 37.775 5.85688e+17 402.44 146.49 138.264 7456.99 0.905941 0.92207 5.83672e+17 0 0 5.42663e+14 1.47294e+15 0 
114 0 38.13 5.91192e+17 762.204 169.521 141.864 7433.28 2.3134 4.49968 5.8344e+17 0 0 2.3257e+15 5.42663e+15 0 
146 0 37.63 5.8344e+17 367.601 139.537 136.969 7460.74 -4.56954 0.415778 5.81812e+17 0 0 3.87616e+14 1.24037e+15 0 
150 0 37.115 5.75455e+17 715.882 171.286 142.849 7435.82 0.350172 2.05468 5.69873e+17 0 0 1.70551e+15 3.87616e+15 0 
182 0 37.26 5.77703e+17 278.978 143.137 137.391 7461.13 1.95807 3.74487 5.76463e+17 0 0 5.42663e+14 6.97709e+14 0 
186 0 38.51 5.97084e+17 806.865 145.661 139.57 7430.16 4.7035 0.666768 5.9127e+17 0 0 1.70551e+15 4.10873e+15 0 
218 0 37.53 5.81889e+17 213.114 137.952 136.767 7464.15 0.721717 1.29864 5.80881e+17 0 0 1.55046e+14 8.52755e+14 0 
222 0 37.85 5.86851e+17 607.04 154.291 142.255 7444.13 2.19828 0.169318 5.82199e+17 7.75232e+13 0 1.31789e+15 3.25598e+15 0 
254 0 37.74 5.85145e+17 240.9 140.41 134.55 7468.89 -0.278645 0.0264878 5.84215e+17 0 0 1.55046e+14 7.75232e+14 0 
258 0 37.75 5.853e+17 457.082 157.566 138.677 7453.02 0.717383 1.90718 5.81657e+17 0 0 1.31789e+15 2.24817e+15 7.75232e+13 
290 0 38 5.89176e+17 322.943 139.925 137.715 7458.44 1.17774 -2.02781 5.87238e+17 0 0 5.42663e+14 1.39542e+15 0 
294 0 37.99 5.89021e+17 781.754 169.087 142.69 7428.69 8.53225 1.95508 5.8344e+17 0 0 1.47294e+15 4.10873e+15 0 
326 0 37.84 5.86696e+17 273.667 135.759 136.823 7465.37 2.45208 3.86594 5.85378e+17 0 0 2.3257e+14 1.08533e+15 0 
330 0 37.59 5.8282e+17 719.516 159.461 140.736 7432.45 2.70074 -0.763607 5.77548e+17 0 0 2.0156e+15 3.25598e+15 0 
362 0 37.615 5.83207e+17 266.493 142.23 136.251 7464.83 -3.39107 0.310175 5.81889e+17 0 0 2.3257e+14 1.08533e+15 0 
366 0 37.795 5.85998e+17 433.527 157.546 139.833 7454.71 4.73572 2.52958 5.8282e+17 0 0 1.16285e+15 2.0156e+15 0 
398 0 37.875 5.87238e+17 272.67 142.669 136.777 7462.63 5.11308 -0.725967 5.85688e+17 0 0 6.20186e+14 9.30279e+14 0 
402 0 38.225 5.92665e+17 424.029 179.017 137.093 7455.73 2.2134 3.02258 5.88866e+17 0 0 1.31789e+15 2.48074e+15 0 
434 0 36.935 5.72664e+17 283.539 146.353 137.33 7466.77 -0.13362 -1.13569 5.71656e+17 0 0 3.10093e+14 6.97709e+14 0 
438 0 37.7 5.84525e+17 435.174 158.835 138.029 7455.57 3.95927 3.32936 5.82122e+17 0 0 8.52755e+14 1.55046e+15 0 
470 0 37.425 5.80261e+17 230.973 135.406 136.142 7467.81 3.83554 3.91254 5.79409e+17 0 0 3.87616e+14 4.65139e+14 0 
474 0 37.455 5.80726e+17 412.375 151.774 137.843 7456.28 0.798207 -0.672398 5.78633e+17 0 0 6.20186e+14 1.47294e+15 0 
506 0 37.37 5.79409e+17 257.549 139.183 136.757 7466.66 3.40836 0.768761 5.78478e+17 0 0 1.55046e+14 7.75232e+14 0 
510 0 37.63 5.8344e+17 371.328 155.822 138.593 7458.24 3.88304 -3.34122 5.81114e+17 7.75232e+13 0 6.20186e+14 1.62799e+15 0 
542 0 37.755 5.85378e+17 253.545 137.151 136.928 7467.11 -0.110419 1.22768 5.8437e+17 0 0 1.55046e+14 8.52755e+14 0 
546 0 37.665 5.83982e+17 266.264 147.564 137.601 7463.52 -2.49662 -3.0896 5.8282e+17 0 0 3.87616e+14 7.75232e+14 0 
578 0 37.685 5.84292e+17 175.277 136.42 135.719 7472.69 3.17282 -0.436521 5.83982e+17 0 0 7.75232e+13 2.3257e+14 0 
582 0 37.525 5.81812e+17 231.434 147.042 138.147 7467.5 2.42181 3.8501 5.80261e+17 0 0 5.42663e+14 1.0078e+15 0 
614 0 37.425 5.80261e+17 253.417 139.186 136.885 7461.78 -1.26644 2.35269 5.79719e+17 0 0 2.3257e+14 3.10093e+14 0 
618 0 37.225 5.7716e+17 217.554 136.348 136.366 7469.95 4.23679 0.696319 5.76463e+17 0 0 3.10093e+14 3.87616e+14 0 
3 0 38.8 6.0158e+17 232.972 141.864 138.658 7468.44 16.7353 -0.35626 5.99487e+17 0 0 3.87616e+14 1.70551e+15 0 
7 0 41.69 6.46389e+17 968.952 186.502 142.87 7412.2 32.5691 -0.840138 6.34683e+17 2.3257e+14 0 3.79864e+15 7.59728e+15 7.75232e+13 
39 0 37.595 5.82897e+17 370.757 145.266 137.904 7458.5 0.76376 -2.60377 5.81347e+17 0 0 7.75232e+14 7.75232e+14 0 
43 0 38.055 5.90029e+17 1095.66 197.25 148.703 7412.38 3.64805 1.78028 5.81192e+17 7.75232e+13 0 3.25598e+15 5.42663e+15 7.75232e+13 
75 0 37.35 5.79098e+17 371.412 144.298 138.916 7456.37 0.689727 -2.59658 5.7747e+17 0 0 6.97709e+14 9.30279e+14 0 
79 0 37.775 5.85688e+17 990.012 160.081 142.646 7422.02 1.70698 -0.144432 5.78091e+17 0 0 1.86056e+15 5.73672e+15 0 
111 0 37.605 5.83052e+17 374.525 149.981 137.29 7458.57 4.74763 -1.42603 5.80804e+17 0 0 6.20186e+14 1.62799e+15 0 
115 0 38.2 5.92277e+17 1089.31 187.599 144.318 7409.94 5.44325 -1.29875 5.82665e+17 7.75232e+13 0 2.86836e+15 6.667e+15 0 
147 0 37.715 5.84758e+17 483.899 155.355 137.608 7450.2 -0.650871 -2.03817 5.81347e+17 0 0 1.0078e+15 2.40322e+15 0 
151 0 38.2 5.92277e+17 1164.35 197.46 142.434 7409.32 6.99233 3.48371 5.83207e+17 0 0 2.86836e+15 6.20186e+15 0 
183 0 37.85 5.86851e+17 416.941 142.624 141.679 7456.34 -2.25315 0.496903 5.84448e+17 0 0 6.97709e+14 1.70551e+15 0 
187 0 37.97 5.88711e+17 1137.3 173.361 146.443 7411.25 2.42665 -0.433247 5.80881e+17 0 0 2.24817e+15 5.58167e+15 0 
219 0 37.555 5.82277e+17 427.865 155.089 138.74 7453.18 0.657493 -4.11572 5.79796e+17 0 0 7.75232e+14 1.70551e+15 0 
223 0 37.685 5.84292e+17 951.226 174.967 142.267 7414.14 6.29863 1.31527 5.7623e+17 0 0 2.79084e+15 5.03901e+15 2.3257e+14 
255 0 37.365 5.79331e+17 374.038 145.899 137.573 7461.14 4.26509 1.61043 5.77238e+17 0 0 4.65139e+14 1.62799e+15 0 
259 0 37.975 5.88789e+17 791.318 152.893 139.494 7427.95 9.7701 3.16483 5.82897e+17 0 0 1.78303e+15 4.10873e+15 0 
291 0 37.37 5.79409e+17 320.651 145.021 137.193 7460 0.984547 -1.9604 5.77393e+17 0 0 5.42663e+14 1.47294e+15 0 
295 0 37.675 5.84137e+17 814.546 179.934 152.045 7429.42 1.15921 2.30786 5.78633e+17 0 0 2.09313e+15 3.41102e+15 0 
327 0 37.175 5.76385e+17 361.102 142.444 138.373 7461.29 1.12236 -0.733791 5.74757e+17 0 0 3.87616e+14 1.24037e+15 0 
331 0 37.495 5.81347e+17 534.143 153.837 141.392 7448.51 5.73619 -1.41344 5.7685e+17 0 0 1.70551e+15 2.71331e+15 7.75232e+13 
363 0 37.56 5.82354e+17 254.183 138.876 138.174 7466.34 -2.93456 -2.60035 5.81037e+17 0 0 5.42663e+14 7.75232e+14 0 
367 0 37.445 5.80571e+17 556.071 162.481 141.141 7445.58 2.94799 2.52258 5.7623e+17 0 0 1.08533e+15 3.25598e+15 0 
399 0 37.38 5.79564e+17 404.714 156.788 137.225 7458.87 1.58351 0.192602 5.7747e+17 0 0 5.42663e+14 1.55046e+15 0 
403 0 37.29 5.78168e+17 551.575 149.419 140.4 7448.51 2.25074 -1.66126 5.74525e+17 0 0 1.0078e+15 2.63579e+15 0 
435 0 37.665 5.83982e+17 271.987 140.557 136.735 7463.71 1.47055 -1.04541 5.82742e+17 0 0 3.87616e+14 8.52755e+14 0 
439 0 38.04 5.89797e+17 590.435 162.43 138.662 7443.12 3.91607 -2.45479 5.86696e+17 0 0 1.0078e+15 2.09313e+15 0 
471 0 37.44 5.80494e+17 246.798 138.705 136.435 7467.91 2.5834 1.33782 5.79564e+17 0 0 3.10093e+14 6.20186e+14 0 
475 0 38.04 5.89797e+17 554.613 150.478 139.133 7446.42 7.77884 -0.863726 5.86076e+17 0 0 1.16285e+15 2.55827e+15 0 
507 0 37.47 5.80959e+17 265.661 152.571 137.347 7464.93 3.21734 0.114372 5.80029e+17 0 0 3.10093e+14 6.20186e+14 0 
511 0 37.575 5.82587e+17 415.46 155.125 139.627 7454.58 6.30684 -2.30738 5.79874e+17 0 0 8.52755e+14 1.86056e+15 0 
543 0 37.13 5.75687e+17 203.725 140.196 137.419 7468.16 1.75497 -1.11349 5.74835e+17 0 0 1.55046e+14 6.97709e+14 0 
547 0 37.12 5.75532e+17 316.011 147.05 136.968 7459.85 2.0361 -0.110054 5.73284e+17 0 0 6.97709e+14 1.55046e+15 0 
579 0 37.655 5.83827e+17 257.688 138.513 137.697 7466.35 2.17851 -1.87431 5.83285e+17 0 0 1.55046e+14 3.87616e+14 0 
583 0 37.525 5.81812e+17 306.415 140.708 137.432 7462.66 1.50566 -3.91132 5.79951e+17 0 0 5.42663e+14 1.31789e+15 0 
615 0 37.495 5.81347e+17 183.668 140.181 137.23 7467.45 1.97053 -0.115529 5.80959e+17 0 0 1.55046e+14 1.55046e+14 7.75232e+13 
619 0 37.795 5.85998e+17 376.562 141.709 137.427 7456.44 5.58409 0.98598 5.83905e+17 0 0 7.75232e+14 1.31789e+15 0 
4 0 40.38 6.26078e+17 639.323 148.773 142.848 7442.5 20.2067 -1.35822 6.21814e+17 0 0 1.47294e+15 2.79084e+15 0 
8 0 42.59 6.60343e+17 1685.81 250.692 158.577 7373.02 34.1419 1.1023 6.4321e+17 7.75232e+13 0 5.27158e+15 1.1706e+16 7.75232e+13 
40 0 37.705 5.84603e+17 457.385 156.529 138.218 7453.84 -0.270795 -2.55289 5.81734e+17 0 0 9.30279e+14 1.93808e+15 0 
44 0 38.61 5.98634e+17 1667.23 213.4 155.567 7373.98 0.0901306 0.743426 5.8313e+17 0 0 6.51195e+15 8.99269e+15 0 
76 0 38.2 5.92277e+17 624.913 155.673 142.287 7442.19 -3.12981 0.809338 5.86851e+17 7.75232e+13 0 2.0156e+15 3.3335e+15 0 
80 0 37.87 5.87161e+17 1580.17 201.829 145.718 7378.6 5.59011 -1.238 5.73827e+17 0 0 4.65139e+15 8.60508e+15 7.75232e+13 
112 0 37.515 5.81657e+17 599.773 150.257 140.093 7443.94 2.90905 0.941147 5.77703e+17 0 0 1.31789e+15 2.63579e+15 0 
116 0 38.865 6.02588e+17 1530.92 190.322 145.756 7385.8 6.09946 1.04752 5.89564e+17 0 0 4.18625e+15 8.83765e+15 0 
148 0 37.81 5.86231e+17 422.41 149.566 138.423 7451.53 0.456887 0.564196 5.83052e+17 0 0 7.75232e+14 2.40322e+15 0 
152 0 37.695 5.84448e+17 1218.55 191.763 144.559 7406.57 5.06209 -0.821514 5.74447e+17 0 0 3.25598e+15 6.74452e+15 0 
184 0 37.835 5.86618e+17 510.75 148.341 137.819 7452.46 3.19188 -0.923757 5.8375e+17 0 0 9.30279e+14 1.93808e+15 0 
188 0 38.24 5.92898e+17 1612.19 202.103 146.281 7372.97 7.82959 6.63512 5.79021e+17 0 0 5.03901e+15 8.76012e+15 7.75232e+13 
220 0 38.02 5.89487e+17 465.076 153.337 137.978 7455.18 -0.544111 2.00202 5.86618e+17 0 0 1.08533e+15 1.78303e+15 0 
224 0 38.28 5.93518e+17 1190.4 192.608 146.148 7399 8.06717 -1.28968 5.81967e+17 0 0 3.41102e+15 8.06241e+15 7.75232e+13 
256 0 37.855 5.86928e+17 466.263 150.273 137.469 7452.63 6.34549 -1.62048 5.84603e+17 0 0 6.20186e+14 1.70551e+15 0 
260 0 38.16 5.91657e+17 1402.12 207.912 147.769 7391.25 9.59928 2.30556 5.80959e+17 7.75232e+13 0 3.64359e+15 6.97709e+15 0 
292 0 37.475 5.81037e+17 431.681 145.139 139.018 7457.1 -0.171785 0.27318 5.78633e+17 0 0 7.75232e+14 1.62799e+15 0 
296 0 37.955 5.88479e+17 907.92 195.091 146.264 7420.35 6.12618 -3.15357 5.81269e+17 0 0 2.79084e+15 4.26378e+15 1.55046e+14 
328 0 37.58 5.82665e+17 359.009 146.783 137.684 7460.9 4.82138 2.49729 5.80804e+17 0 0 2.3257e+14 1.62799e+15 0 
332 0 38.48 5.96619e+17 918.81 180.643 138.301 7420.58 9.00804 3.35766 5.88789e+17 0 0 2.17065e+15 5.65919e+15 0 
364 0 37.825 5.86463e+17 412.474 142.23 139.519 7457.83 0.433022 -2.72993 5.84758e+17 0 0 6.20186e+14 1.08533e+15 0 
368 0 38 5.89176e+17 892.424 187.887 145.017 7422.14 6.0605 0.832786 5.81734e+17 0 0 3.02341e+15 4.41882e+15 0 
400 0 37.355 5.79176e+17 257.377 142.538 136.735 7467.71 2.60282 2.10432 5.78323e+17 0 0 3.10093e+14 5.42663e+14 0 
404 0 38.345 5.94526e+17 688.537 185.369 137.65 7433.75 11.4252 -0.583797 5.89952e+17 0 0 1.47294e+15 3.10093e+15 0 
436 0 37.645 5.83672e+17 336.031 160.331 138.125 7461.89 4.45337 2.18812 5.81734e+17 0 0 8.52755e+14 1.08533e+15 0 
440 0 37.315 5.78556e+17 686.843 157.468 141.022 7440.9 5.55595 0.414745 5.74214e+17 0 0 1.31789e+15 3.02341e+15 0 
472 0 38.165 5.91735e+17 351.302 143.792 138.134 7461.53 1.92474 -0.698629 5.89719e+17 0 0 4.65139e+14 1.55046e+15 0 
476 0 37.175 5.76385e+17 522.819 157.039 137.921 7449.39 4.56312 1.7384 5.72742e+17 0 0 1.24037e+15 2.40322e+15 0 
508 0 37.36 5.79253e+17 328.068 139.227 138.05 7461.49 0.452946 -1.31522 5.78091e+17 0 0 3.10093e+14 8.52755e+14 0 
512 0 37.27 5.77858e+17 428.291 179.228 141.005 7455.07 7.90409 1.14983 5.75067e+17 0 0 6.97709e+14 2.09313e+15 0 
544 0 37.685 5.84292e+17 257.21 152.316 137.947 7464.73 1.18666 0.492092 5.82975e+17 0 0 3.87616e+14 8.52755e+14 7.75232e+13 
548 0 37.865 5.87083e+17 521.333 149.862 138.351 7448.87 5.92743 1.31526 5.83362e+17 0 0 1.62799e+15 2.09313e+15 0 
580 0 37.33 5.78788e+17 253.533 136.818 136.783 7465.23 1.70688 3.26238 5.78091e+17 0 0 7.75232e+13 6.20186e+14 0 
584 0 37.865 5.87083e+17 366.476 142.427 136.397 7460.17 7.61515 -0.117675 5.85068e+17 0 0 8.52755e+14 1.16285e+15 0 
616 0 37.61 5.8313e+17 202.186 138.817 136.596 7468.14 -1.11803 -0.61865 5.82897e+17 0 0 0 2.3257e+14 0 
620 0 37.75 5.853e+17 315.33 148.949 136.647 7455.85 2.2577 0.844282 5.83672e+17 0 0 4.65139e+14 1.16285e+15 0 
10 0 44.835 6.95151e+17 3214.45 339.264 166.86 7258.93 38.8528 -3.03632 6.58792e+17 7.75232e+13 0 1.26363e+16 2.3412e+16 2.3257e+14 
46 0 39.52 6.12744e+17 3086.98 341.474 162.334 7269.03 2.64041 -1.66765 5.81424e+17 0 0 1.1551e+16 1.96909e+16 7.75232e+13 
82 0 39.825 6.17472e+17 3382.66 320.523 158.637 7252.24 11.8037 -3.54789 5.85223e+17 1.55046e+14 0 1.03106e+16 2.13964e+16 3.87616e+14 
118 0 39.47 6.11968e+17 3401.65 295.869 164.994 7258.95 19.3867 -3.82732 5.83595e+17 7.75232e+13 0 1.09308e+16 1.72877e+16 7.75232e+13 
154 0 39.155 6.07084e+17 2954.51 292.329 160.53 7282.07 19.5251 2.77046 5.80029e+17 1.55046e+14 0 9.92297e+15 1.68225e+16 1.55046e+14 
190 0 39.095 6.06154e+17 2807.48 278.401 161.307 7297.75 16.6522 2.39846 5.79874e+17 3.10093e+14 0 9.45783e+15 1.65124e+16 0 
226 0 38.55 5.97704e+17 2431.33 352.498 161.318 7318.26 23.4711 -1.88871 5.74835e+17 0 0 9.30279e+15 1.3489e+16 7.75232e+13 
262 0 39.39 6.10728e+17 1965.2 251.362 152.511 7346.68 25.1168 -2.65879 5.92045e+17 0 0 6.43443e+15 1.22487e+16 0 
298 0 38.27 5.93363e+17 2009.88 228.017 153.635 7350.08 24.7841 -1.70721 5.78091e+17 0 0 5.96929e+15 9.30279e+15 0 
334 0 38.585 5.98247e+17 1528.21 212.455 150.675 7379.74 17.6326 0.129435 5.83362e+17 0 0 4.72892e+15 1.00005e+16 1.55046e+14 
370 0 38.64 5.99099e+17 1217.83 185.155 151.62 7405.4 15.1245 -0.0489984 5.87704e+17 7.75232e+13 0 4.03121e+15 7.20966e+15 7.75232e+13 
406 0 37.7 5.84525e+17 946.844 195.826 152.625 7418.41 12.0276 1.70935 5.75377e+17 0 0 3.17845e+15 5.89176e+15 7.75232e+13 
442 0 37.805 5.86153e+17 887.738 197.82 142.727 7421.06 12.7687 2.12257 5.78711e+17 0 0 2.71331e+15 4.72892e+15 0 
478 0 38.255 5.9313e+17 746.641 160.305 140.977 7434.49 10.7639 -0.895047 5.87626e+17 7.75232e+13 0 2.63579e+15 2.79084e+15 0 
514 0 37.335 5.78866e+17 624.759 182.125 138.526 7440.74 9.51307 -0.154648 5.73362e+17 7.75232e+13 0 1.39542e+15 4.03121e+15 0 
550 0 38.005 5.89254e+17 595.024 174.436 146.19 7440.52 7.34147 1.45895 5.84215e+17 0 0 1.86056e+15 3.17845e+15 0 
586 0 37.7 5.84525e+17 558.104 172.204 141.316 7448.18 10.88 1.34712 5.80339e+17 0 0 1.39542e+15 2.71331e+15 7.75232e+13 
622 0 37.455 5.80726e+17 462.697 176.358 140.792 7449.78 8.98872 -0.0391374 5.7716e+17 0 0 1.55046e+15 2.0156e+15 0 
11 0 46.715 7.24299e+17 4947.14 440.464 172.819 7131.08 33.8505 -6.21341 6.65072e+17 4.65139e+14 0 2.06987e+16 3.80639e+16 0 
47 0 41.03 6.36156e+17 5448.73 492.875 194.393 7093.2 7.32911 1.18222 5.82354e+17 1.55046e+14 0 2.0156e+16 3.34125e+16 7.75232e+13 
83 0 40.475 6.2755e+17 4831.88 501.511 177.75 7137.76 20.646 0.898152 5.78556e+17 1.55046e+14 0 1.75978e+16 3.12419e+16 0 
119 0 40.665 6.30496e+17 4605.49 441.565 188.475 7162.52 26.2097 0.806368 5.86928e+17 3.87616e+14 0 1.69001e+16 2.58928e+16 3.87616e+14 
155 0 40.8 6.32589e+17 4554.01 439.904 190.382 7163.03 36.3545 -7.07822 5.89021e+17 7.75232e+13 0 1.58923e+16 2.72882e+16 3.10093e+14 
191 0 40.475 6.2755e+17 3834.93 371.329 184.209 7215 27.9633 3.08486 5.90262e+17 0 0 1.28689e+16 2.42648e+16 1.55046e+14 
227 0 39.605 6.14061e+17 3442.45 348.97 168.979 7242.41 32.8174 4.02262 5.81192e+17 3.10093e+14 0 1.22487e+16 2.0156e+16 1.55046e+14 
263 0 39.175 6.07394e+17 2845.16 310.618 163.622 7285.97 29.1401 1.25853 5.81967e+17 0 0 8.52755e+15 1.69001e+16 0 
299 0 38.62 5.98789e+17 2486.71 286.379 165.59 7317.16 28.5869 -0.401363 5.75842e+17 1.55046e+14 0 8.21746e+15 1.44193e+16 1.55046e+14 
335 0 39.025 6.05069e+17 2034.15 254.252 157.144 7344.89 26.9619 -0.97215 5.84448e+17 7.75232e+13 0 7.05461e+15 1.3489e+16 0 
371 0 38.715 6.00262e+17 1749.17 230.492 158.659 7362.5 25.174 0.938305 5.83595e+17 0 0 6.12433e+15 1.04656e+16 7.75232e+13 
407 0 38.51 5.97084e+17 1269.09 215.359 145.414 7397.45 20.2769 -1.581 5.86928e+17 0 0 4.18625e+15 5.89176e+15 7.75232e+13 
443 0 37.79 5.8592e+17 1241.53 210.49 149.708 7397.16 24.6704 -0.803609 5.74835e+17 7.75232e+13 0 4.03121e+15 6.89957e+15 7.75232e+13 
479 0 38.46 5.96309e+17 863.523 184.51 143.32 7420.16 14.0212 0.555469 5.88556e+17 7.75232e+13 0 2.71331e+15 4.96149e+15 0 
515 0 37.69 5.8437e+17 775.3 169.902 142.279 7430.22 8.4679 -0.148766 5.78168e+17 0 0 2.40322e+15 3.79864e+15 0 
551 0 37.095 5.75145e+17 763.807 181.963 142.393 7433.38 11.7704 -1.22136 5.68555e+17 0 0 2.3257e+15 4.26378e+15 0 
587 0 37.875 5.87238e+17 537.514 155.989 139.049 7447.66 10.2445 0.234863 5.83517e+17 0 0 1.47294e+15 2.24817e+15 0 
623 0 37.71 5.8468e+17 445.937 147.642 141.294 7452.56 7.66322 -1.02447 5.81812e+17 0 0 1.16285e+15 1.70551e+15 0 
12 0 47.36 7.343e+17 7466.06 614.521 214.341 6934.88 51.7224 8.38203 6.48094e+17 2.3257e+14 0 3.58157e+16 4.96924e+16 4.65139e+14 
48 0 42.32 6.56157e+17 7823.24 616.224 231.497 6902.29 21.6553 3.22619 5.76695e+17 1.55046e+14 0 3.16295e+16 4.75217e+16 1.55046e+14 
84 0 42.89 6.64994e+17 7853.39 649.421 230.514 6900.29 37.0319 -1.8788 5.85378e+17 3.10093e+14 0 3.05441e+16 4.8452e+16 3.10093e+14 
120 0 42.39 6.57242e+17 7363.59 628.66 199.059 6942.65 44.3559 6.02708 5.84292e+17 7.75232e+13 0 2.76758e+16 4.5041e+16 1.55046e+14 
156 0 41.445 6.4259e+17 6800.07 560.858 237.645 6981.28 50.4197 2.19009 5.74835e+17 1.55046e+14 0 2.57377e+16 4.18625e+16 0 
192 0 41.18 6.38481e+17 5748.02 450.929 210.934 7058.59 59.3629 4.06021 5.8375e+17 2.3257e+14 0 2.02336e+16 3.42653e+16 0 
228 0 40.825 6.32977e+17 5042.2 439.304 189.156 7129.36 60.9107 0.667143 5.85145e+17 1.55046e+14 0 1.72877e+16 3.01565e+16 2.3257e+14 
264 0 40.205 6.23364e+17 4099.66 368.574 181.16 7200.44 55.6763 1.29353 5.82432e+17 2.3257e+14 0 1.62024e+16 2.44973e+16 0 
300 0 40.14 6.22356e+17 3439.1 353.514 175.978 7240.21 52.7311 -5.43379 5.89642e+17 0 0 1.24812e+16 2.02336e+16 0 
336 0 39.285 6.091e+17 2915.77 348.321 167.004 7278.03 41.2087 0.791646 5.83362e+17 7.75232e+13 0 1.02331e+16 1.53496e+16 7.75232e+13 
372 0 38.59 5.98324e+17 2030.34 271.974 161.516 7345.45 29.0457 3.61854 5.79253e+17 7.75232e+13 0 8.29498e+15 1.06207e+16 7.75232e+13 
408 0 38.865 6.02588e+17 1797.19 229.705 149.928 7358.32 30.1426 1.94078 5.86463e+17 7.75232e+13 0 5.03901e+15 1.09308e+16 7.75232e+13 
13 0 53.23 8.25312e+17 11083.2 967.195 265.623 6589.69 44.5491 -7.42046 6.83522e+17 1.55046e+14 0 6.10883e+16 8.03141e+16 2.3257e+14 
49 0 47.92 7.42983e+17 12380.4 949.964 301.612 6480.66 46.2916 -2.27313 6.04061e+17 2.3257e+14 0 5.69796e+16 8.13994e+16 3.10093e+14 
85 0 46.06 7.14144e+17 11468.2 928.48 294.99 6562.23 61.2153 -14.2894 5.89099e+17 6.97709e+14 0 4.93823e+16 7.48099e+16 1.55046e+14 
121 0 45.885 7.11431e+17 10673.9 902.165 295.703 6639.9 79.8684 -3.14934 5.99099e+17 3.87616e+14 0 4.46534e+16 6.72126e+16 7.75232e+13 
157 0 44.865 6.95616e+17 9267.7 718.638 259.503 6771.88 84.5969 7.88224 5.9941e+17 4.65139e+14 0 3.71336e+16 5.8375e+16 2.3257e+14 
193 0 43.385 6.72669e+17 8085.48 663.898 229.762 6877.83 91.3967 1.04746 5.93595e+17 4.65139e+14 0 3.11643e+16 4.72116e+16 2.3257e+14 
229 0 41.97 6.5073e+17 6836.95 593.161 205.436 6983.14 85.1492 -4.75755 5.84835e+17 1.55046e+14 0 2.62028e+16 3.93043e+16 2.3257e+14 
265 0 41.955 6.50497e+17 5382.4 472.584 196.581 7081.15 74.554 2.58646 5.95921e+17 7.75232e+13 0 2.06987e+16 3.37226e+16 7.75232e+13 
301 0 40.07 6.21271e+17 4165.58 502.007 178.103 7178.23 65.087 0.0343398 5.79486e+17 1.55046e+14 0 1.62024e+16 2.54276e+16 0 
337 0 39.46 6.11813e+17 3269.22 343.272 175.198 7253.66 59.0392 0.398273 5.81734e+17 7.75232e+13 0 1.24037e+16 1.75202e+16 7.75232e+13 
373 0 39.095 6.06154e+17 2831.65 305.586 161.402 7280.99 47.4476 -4.0582 5.79486e+17 7.75232e+13 0 9.92297e+15 1.66675e+16 0 
409 0 39.115 6.06464e+17 2087.21 317.149 159.458 7335.17 36.144 0.409161 5.85068e+17 0 0 8.60508e+15 1.25588e+16 2.3257e+14 
445 0 39.02 6.04991e+17 1752.02 243.249 158.799 7359.9 30.2396 -6.10638 5.89564e+17 0 0 6.12433e+15 9.30279e+15 0 
481 0 38.765 6.01038e+17 1424.11 274.084 151.141 7383.39 30.9559 3.90947 5.87626e+17 1.55046e+14 0 4.57387e+15 8.60508e+15 7.75232e+13 
517 0 38.295 5.9375e+17 1046.72 210.15 154.04 7404.52 24.6022 -1.87239 5.82199e+17 7.75232e+13 0 4.96149e+15 6.51195e+15 0 
553 0 37.935 5.88169e+17 696.119 198.197 142.81 7430.35 14.0247 -0.99705 5.80959e+17 0 0 2.86836e+15 4.3413e+15 0 
589 0 38.145 5.91425e+17 675.078 204.98 145.127 7432.82 17.1314 0.22634 5.84603e+17 0 0 2.86836e+15 3.95368e+15 0 
625 0 37.915 5.87859e+17 499.48 175.207 141.292 7446.99 12.5584 -1.58682 5.83362e+17 0 0 1.47294e+15 3.02341e+15 0 
444 0 37.755 5.85378e+17 1437.8 216.242 151.788 7386.89 22.8723 5.29996 5.73749e+17 0 0 4.3413e+15 7.28718e+15 0 
480 0 38.48 5.96619e+17 1349.37 216.096 158.225 7392.1 24.5746 -3.17967 5.84835e+17 7.75232e+13 0 4.26378e+15 7.36471e+15 7.75232e+13 
516 0 37.67 5.8406e+17 905.477 183.087 145.187 7422.1 18.7966 -2.21259 5.7654e+17 1.55046e+14 0 2.71331e+15 4.65139e+15 0 
552 0 38.73 6.00495e+17 757.068 180.241 144.788 7435.18 9.97341 -2.77178 5.94758e+17 0 0 2.09313e+15 3.64359e+15 0 
588 0 37.58 5.82665e+17 711.642 192.327 143.914 7435.77 18.1813 2.6849 5.76153e+17 0 0 2.94588e+15 3.56607e+15 0 
624 0 37.855 5.86928e+17 461.252 148.001 141.218 7450.4 9.51502 0.560805 5.82897e+17 7.75232e+13 0 1.0078e+15 2.94588e+15 0 
14 0 60.705 9.41209e+17 16139.7 1416.43 405.741 6016.18 66.1056 -1.62416 6.96701e+17 4.65139e+14 0 1.02873e+17 1.4055e+17 6.20186e+14 
50 0 55.145 8.55004e+17 16943.6 1494.92 442.634 5885.22 60.2391 6.57208 6.15302e+17 3.87616e+14 0 9.6904e+16 1.42023e+17 3.87616e+14 
86 0 52.8 8.18645e+17 16875.9 1515.95 398.7 5924.91 99.5316 -0.935903 6.04371e+17 6.20186e+14 0 8.61283e+16 1.2644e+17 1.08533e+15 
122 0 51.85 8.03916e+17 15223.6 1402.74 365.702 6125.21 129.099 -0.413219 6.13906e+17 2.3257e+14 0 7.86085e+16 1.10703e+17 4.65139e+14 
158 0 48.48 7.51665e+17 13836.1 1167.95 331.729 6294.99 146.208 3.28625 5.94448e+17 4.65139e+14 0 6.3414e+16 9.28728e+16 4.65139e+14 
194 0 46.795 7.2554e+17 11814.9 1013.6 297.802 6520.98 150.01 -3.74446 6.0034e+17 7.75232e+14 0 5.22506e+16 7.20966e+16 7.75232e+13 
230 0 44.91 6.96314e+17 9376.15 783.748 255.392 6733.09 134.627 3.48853 5.94526e+17 4.65139e+14 0 3.95368e+16 6.14759e+16 3.10093e+14 
266 0 42.92 6.65459e+17 7443.02 691.831 240.597 6909.91 123.592 -2.88626 5.87161e+17 2.3257e+14 0 3.23272e+16 4.55837e+16 1.55046e+14 
302 0 42.08 6.52435e+17 5689.96 541.106 207.174 7059.1 95.6913 4.64029 5.93053e+17 0 0 2.38772e+16 3.55056e+16 0 
338 0 40.74 6.31659e+17 4518.34 481.722 188.569 7153.94 84.9708 -2.13574 5.88091e+17 3.10093e+14 0 1.75202e+16 2.57377e+16 0 
374 0 39.87 6.1817e+17 3405.99 416.378 179.688 7240.43 64.4904 1.32534 5.83982e+17 7.75232e+13 0 1.31789e+16 2.07762e+16 1.55046e+14 