ITEM: TIMESTEP
16000
ITEM: NUMBER OF CELLS
1036
ITEM: BOX BOUNDS oo ao pp
-10 10
0 10
-0.5 0.5
ITEM: CELLS id proc f_avg_n f_avg_nrho f_avg_temp_tra f_avg_temp_rot f_avg_temp_vib f_avg_vel[1] f_avg_vel[2] f_avg_vel[3] f_avg_nrho_CO2 f_avg_nrho_O2 f_avg_nrho_C2 f_avg_nrho_CO f_avg_nrho_O f_avg_nrho_C 
1 0 37.86 5.87006e+17 251.279 142.338 135.808 7462.16 5.00301 -1.52098 5.86076e+17 0 0 1.03364e+14 8.26914e+14 0 
5 0 39.95 6.19411e+17 548.176 165.542 141.573 7443.35 30.4268 -2.74363 6.14346e+17 0 0 1.49878e+15 3.56607e+15 0 
9 0 42.9367 6.65718e+17 1955.4 288.188 154.321 7348.9 35.5341 3.68833 6.43649e+17 5.16821e+13 0 9.04438e+15 1.29722e+16 0 
37 0 37.6367 5.83543e+17 328.448 146.59 136.838 7463.06 0.840736 2.03592 5.82096e+17 0 0 5.68504e+14 8.78596e+14 0 
41 0 37.47 5.80959e+17 734.317 174.938 140.412 7435.69 -1.61189 3.16037 5.75584e+17 5.16821e+13 0 1.75719e+15 3.56607e+15 0 
45 0 38.5633 5.97911e+17 2555.95 267.945 156.54 7310.96 2.47238 -2.53019 5.75636e+17 2.06729e+14 0 7.54559e+15 1.44193e+16 1.03364e+14 
73 0 37.2 5.76773e+17 324.6 140.056 136.066 7464.98 -0.232178 1.91671 5.75584e+17 0 0 4.13457e+14 7.75232e+14 0 
77 0 37.6833 5.84267e+17 643.086 159.169 140.756 7441.55 0.911808 -0.787845 5.79512e+17 0 0 1.29205e+15 3.4627e+15 0 
81 0 38.4133 5.95585e+17 2261.51 228.709 165.202 7331.48 7.21087 -2.7606 5.7455e+17 0 0 6.92541e+15 1.41092e+16 0 
109 0 37.7133 5.84732e+17 258.421 140.63 138.537 7465.38 0.778237 0.102707 5.83802e+17 0 0 3.10093e+14 6.20186e+14 0 
113 0 37.7933 5.85972e+17 640.805 153.397 140.179 7440.54 3.94469 -0.347017 5.80804e+17 0 0 1.55046e+15 3.61775e+15 0 
117 0 39.2667 6.08816e+17 2064.93 267.592 152.133 7342.85 8.5835 2.0213 5.88039e+17 0 0 6.30522e+15 1.42126e+16 2.58411e+14 
145 0 37.5233 5.81786e+17 279.283 140.487 139.173 7464.06 -1.43134 2.44614 5.80752e+17 0 0 3.61775e+14 6.71868e+14 0 
149 0 37.88 5.87316e+17 568.659 168.909 140.654 7445.59 2.11814 -0.524082 5.82561e+17 0 0 1.39542e+15 3.30766e+15 5.16821e+13 
153 0 38.9067 6.03234e+17 2118.27 282.366 159.219 7337.68 9.8559 1.38614 5.82509e+17 1.03364e+14 0 7.85569e+15 1.27138e+16 5.16821e+13 
181 0 37.52 5.81734e+17 313.379 136.812 135.929 7462.83 1.94845 2.76905 5.80442e+17 0 0 2.06729e+14 1.08533e+15 0 
185 0 37.82 5.86386e+17 653.143 165.654 140.562 7438.87 -1.29525 1.82122 5.81631e+17 0 0 1.4471e+15 3.25598e+15 5.16821e+13 
189 0 38.5133 5.97136e+17 1847.49 233.178 153.405 7361.71 10.7183 -2.79407 5.80856e+17 5.16821e+13 0 5.32326e+15 1.09049e+16 0 
217 0 37.2733 5.7791e+17 216.384 142.573 137.395 7465.73 1.14205 -0.88688 5.7729e+17 0 0 1.55046e+14 4.65139e+14 0 
221 0 37.2133 5.76979e+17 511.999 164.064 138.647 7447.59 0.661547 1.93236 5.73517e+17 0 0 9.81961e+14 2.42906e+15 5.16821e+13 
225 0 38.7167 6.00288e+17 1929.35 249.752 156.064 7352.43 16.2941 3.1366 5.82768e+17 1.03364e+14 0 5.73672e+15 1.16802e+16 0 
253 0 37.4233 5.80235e+17 282.554 141.785 137.938 7461.06 0.708361 0.340979 5.79305e+17 0 0 2.58411e+14 6.71868e+14 0 
257 0 37.5733 5.82561e+17 578.39 161.86 137.612 7445.65 3.45318 -0.644599 5.78478e+17 0 0 8.78596e+14 3.15261e+15 5.16821e+13 
261 0 38.25 5.93053e+17 1472.66 247.473 151.677 7386.25 15.524 -3.90156 5.79047e+17 5.16821e+13 0 4.80644e+15 9.14774e+15 0 
289 0 37.3233 5.78685e+17 212.548 139.069 137.07 7470.62 -2.06751 0.61052 5.78013e+17 0 0 1.03364e+14 5.68504e+14 0 
293 0 37.7467 5.85249e+17 558.81 150.449 139.787 7447.56 0.71084 -2.07767 5.81424e+17 0 0 9.30279e+14 2.8942e+15 0 
297 0 37.7733 5.85662e+17 1261.52 223.647 149.489 7394.61 11.798 -0.627224 5.73362e+17 1.03364e+14 0 4.23794e+15 7.95905e+15 0 
325 0 37.1833 5.76514e+17 237.184 139.95 135.34 7467.51 0.372422 2.50274 5.75687e+17 0 0 2.06729e+14 6.20186e+14 0 
329 0 37.5533 5.82251e+17 497.625 158.645 140.563 7449.74 0.440968 -0.344084 5.78633e+17 0 0 1.24037e+15 2.3257e+15 5.16821e+13 
333 0 38.0967 5.90675e+17 1037.15 203.998 144.767 7413.52 10.0385 1.12401 5.81838e+17 1.03364e+14 0 3.41102e+15 5.32326e+15 0 
361 0 37.4533 5.80701e+17 208.786 135.015 136.881 7468.28 -2.35367 2.61132 5.8008e+17 0 0 5.16821e+13 5.68504e+14 0 
365 0 37.55 5.82199e+17 402.95 152.162 138.65 7457.58 1.26678 2.4885 5.79667e+17 0 0 9.30279e+14 1.60215e+15 0 
369 0 38.2467 5.93001e+17 950.114 188.788 149.03 7421.39 9.97309 -0.32346 5.84577e+17 0 0 2.73915e+15 5.68504e+15 0 
397 0 37.5567 5.82303e+17 178.111 136.971 137.133 7466.69 -0.465559 -2.04931 5.81941e+17 0 0 5.16821e+13 3.10093e+14 0 
401 0 37.5067 5.81528e+17 433.234 150.798 136.774 7452.37 2.11811 1.33627 5.79098e+17 0 0 8.78596e+14 1.55046e+15 0 
405 0 37.2867 5.78116e+17 1002.78 179.904 143.725 7417.18 13.5021 1.10274 5.69796e+17 5.16821e+13 0 2.8942e+15 5.37494e+15 0 
433 0 37.5933 5.82871e+17 228.823 139.599 136.072 7469.57 1.55748 0.494871 5.82148e+17 0 0 2.58411e+14 4.65139e+14 0 
437 0 37.4033 5.79925e+17 351.289 145.617 137.349 7458.82 1.00248 0.342229 5.77651e+17 0 0 6.71868e+14 1.60215e+15 0 
441 0 38.29 5.93673e+17 650.307 172.144 140.609 7437.35 9.06941 -1.64425 5.88401e+17 0 0 1.55046e+15 3.72111e+15 0 
469 0 37.5133 5.81631e+17 204.631 138.069 137.75 7467.85 0.251255 0.252509 5.81062e+17 0 0 1.03364e+14 4.65139e+14 0 
473 0 37.5467 5.82148e+17 326.401 149.465 137.159 7462.16 1.28097 0.976402 5.8039e+17 0 0 4.13457e+14 1.34374e+15 0 
477 0 37.9033 5.87678e+17 571.47 173.007 138.933 7443.08 9.96753 -1.00097 5.82096e+17 5.16821e+13 0 1.96392e+15 3.51439e+15 5.16821e+13 
505 0 37.7 5.84525e+17 209.843 146.164 136.707 7467.09 0.415146 -1.35178 5.8375e+17 0 0 3.10093e+14 4.65139e+14 0 
509 0 37.2833 5.78065e+17 310.811 138.25 137.762 7460.1 0.761475 -0.0473164 5.76669e+17 0 0 4.65139e+14 9.30279e+14 0 
513 0 37.9933 5.89073e+17 469.82 156.242 138.369 7451.4 3.83657 -0.494601 5.84835e+17 0 0 1.24037e+15 2.99756e+15 0 
541 0 37.2167 5.77031e+17 223.078 138.785 136.467 7468.78 1.05712 -0.478704 5.76308e+17 0 0 1.03364e+14 6.20186e+14 0 
545 0 37.36 5.79253e+17 281.098 143.437 137.104 7465.03 -0.953902 0.295539 5.77858e+17 0 0 4.13457e+14 9.81961e+14 0 
549 0 37.6933 5.84422e+17 515.807 159.341 140.562 7445.86 10.8094 0.914829 5.80649e+17 0 0 1.39542e+15 2.3257e+15 5.16821e+13 
577 0 37.22 5.77083e+17 208.197 136.609 136.182 7469.46 -1.43474 -2.19241 5.76824e+17 0 0 0 2.58411e+14 0 
581 0 37.7367 5.85094e+17 251.775 140.175 137.716 7467.28 2.14626 1.95472 5.84112e+17 5.16821e+13 0 3.61775e+14 5.68504e+14 0 
585 0 37.71 5.8468e+17 371.852 154.583 137.622 7458.43 6.65713 0.196189 5.82458e+17 0 0 6.20186e+14 1.55046e+15 5.16821e+13 
613 0 37.39 5.79719e+17 211.737 136.188 137.576 7465.68 1.23203 -0.0879408 5.79305e+17 0 0 1.03364e+14 3.10093e+14 0 
617 0 37.4433 5.80546e+17 227.455 138.265 137.763 7468.74 4.64015 -1.02843 5.79925e+17 0 0 1.03364e+14 5.16821e+14 0 
621 0 37.66 5.83905e+17 370.707 144.54 138.237 7456.68 5.62743 -0.504263 5.81683e+17 5.16821e+13 0 8.26914e+14 1.34374e+15 0 
2 0 38.36 5.94758e+17 342.95 142.799 138.191 7461.17 13.9148 -1.59425 5.92743e+17 0 0 8.26914e+14 1.18869e+15 0 
6 0 41.15 6.38016e+17 758 159.377 141.936 7436.29 31.7254 0.203868 6.31039e+17 0 0 1.91224e+15 5.06485e+15 0 
38 0 37.59 5.8282e+17 299.545 147.571 137.704 7461.3 -2.47154 -0.0378178 5.81734e+17 0 0 4.13457e+14 6.71868e+14 0 
42 0 37.6167 5.83233e+17 930.121 173.375 147.775 7422.91 3.08431 3.05441 5.75739e+17 5.16821e+13 0 2.68747e+15 4.65139e+15 1.03364e+14 
74 0 37.7833 5.85817e+17 343.377 141.892 139.454 7461.01 -0.349829 0.616166 5.83957e+17 0 0 5.16821e+14 1.34374e+15 0 
78 0 38.01 5.89332e+17 887.886 159.698 139.246 7426.9 0.419037 0.305577 5.81993e+17 1.03364e+14 0 1.86056e+15 5.32326e+15 5.16821e+13 
110 0 37.6367 5.83543e+17 354.856 144.145 138.637 7461.91 1.37535 1.90768 5.81424e+17 0 0 6.20186e+14 1.49878e+15 0 
114 0 38.3067 5.93931e+17 854.869 170.493 141.973 7427.81 0.864885 2.49284 5.85455e+17 0 0 2.58411e+15 5.89176e+15 0 
146 0 37.49 5.81269e+17 345.418 140.635 136.169 7461.08 -1.40999 -0.519993 5.79512e+17 0 0 5.16821e+14 1.24037e+15 0 
150 0 37.3333 5.7884e+17 807.127 168.768 147.567 7428.83 2.34091 3.26147 5.71811e+17 0 0 2.11897e+15 4.9098e+15 0 
182 0 37.3633 5.79305e+17 260.74 147.341 137.651 7461.71 0.558731 1.94497 5.7822e+17 0 0 3.61775e+14 7.2355e+14 0 
186 0 38.33 5.94293e+17 792.992 154.035 142.329 7427.37 6.29745 0.96829 5.87781e+17 0 0 1.96392e+15 4.49635e+15 5.16821e+13 
218 0 37.47 5.80959e+17 246.531 139.419 137.155 7464.54 1.21991 0.59516 5.79925e+17 0 0 2.58411e+14 7.75232e+14 0 
222 0 37.9167 5.87884e+17 697.543 169.422 142.929 7438.33 4.11536 2.26963 5.82303e+17 5.16821e+13 0 1.55046e+15 3.97953e+15 0 
254 0 37.59 5.8282e+17 242.346 139.798 135.544 7468.43 1.84085 -0.592765 5.81941e+17 0 0 1.55046e+14 7.2355e+14 0 
258 0 38.0067 5.8928e+17 607.306 170.256 139.478 7442.62 2.81486 1.16205 5.84215e+17 0 0 1.80888e+15 3.20429e+15 5.16821e+13 
290 0 37.9467 5.8835e+17 288.596 140.326 137.589 7461.13 0.897071 -0.697908 5.86696e+17 0 0 3.61775e+14 1.24037e+15 5.16821e+13 
294 0 38.2667 5.93311e+17 727.747 164.29 141.11 7433.96 6.55934 -0.701027 5.88453e+17 0 0 1.55046e+15 3.30766e+15 0 
326 0 37.8267 5.86489e+17 262.688 135.621 137.292 7466.34 1.01995 2.07769 5.85352e+17 0 0 1.55046e+14 9.81961e+14 0 
330 0 37.7367 5.85094e+17 652.658 157.304 140.837 7440.28 2.47817 0.93581 5.80339e+17 0 0 1.60215e+15 3.15261e+15 0 
362 0 37.4067 5.79977e+17 287.476 143.905 136.629 7464.22 -1.75393 1.65905 5.78685e+17 0 0 3.10093e+14 9.81961e+14 0 
366 0 37.8 5.86076e+17 460.504 158.412 141.309 7453.68 3.4415 2.15593 5.82665e+17 0 0 1.39542e+15 2.0156e+15 0 
398 0 37.75 5.853e+17 274.372 142.824 138.659 7462.71 5.5066 -0.30754 5.83905e+17 0 0 5.16821e+14 8.78596e+14 0 
402 0 37.9633 5.88608e+17 381.61 167.134 137.135 7457.78 2.93112 3.82016 5.85352e+17 0 0 1.08533e+15 2.17065e+15 0 
434 0 37.2033 5.76824e+17 261.199 142.712 136.822 7466.18 -1.08379 -0.62625 5.75946e+17 0 0 2.06729e+14 6.71868e+14 0 
438 0 37.6033 5.83026e+17 406.151 155.051 138.752 7458.29 3.59692 0.950736 5.80649e+17 0 0 9.30279e+14 1.4471e+15 0 
470 0 37.46 5.80804e+17 222.336 138.301 136.14 7468.52 2.8448 1.83206 5.80029e+17 0 0 4.13457e+14 3.61775e+14 0 
474 0 37.4633 5.80856e+17 370.797 148.17 137.634 7458.38 1.73883 -1.13518 5.78788e+17 0 0 7.2355e+14 1.34374e+15 0 
506 0 37.29 5.78168e+17 246.255 139.606 136.918 7466.75 3.18066 1.15055 5.77238e+17 0 0 1.03364e+14 8.26914e+14 0 
510 0 37.5433 5.82096e+17 350.033 152.574 138.223 7459.86 4.92399 -2.68712 5.79977e+17 5.16821e+13 0 7.2355e+14 1.34374e+15 0 
542 0 37.5967 5.82923e+17 215.879 136.997 136.868 7468.43 0.667028 -0.980739 5.82251e+17 0 0 1.03364e+14 5.68504e+14 0 
546 0 37.7867 5.85869e+17 259.605 144.447 137.618 7465.52 -2.56077 -2.259 5.84628e+17 0 0 4.13457e+14 8.26914e+14 0 
578 0 37.8733 5.87213e+17 191.629 136.702 135.741 7471.82 1.9866 -0.528994 5.86747e+17 0 0 5.16821e+13 4.13457e+14 0 
582 0 37.55 5.82199e+17 247.388 146.77 138.321 7464.29 1.55132 3.9403 5.80339e+17 0 0 7.75232e+14 1.08533e+15 0 
614 0 37.6433 5.83646e+17 221.15 139.146 136.959 7464.69 0.0548484 0.198876 5.83181e+17 0 0 1.55046e+14 3.10093e+14 0 
618 0 37.29 5.78168e+17 231.814 144.629 137.51 7467.38 2.65753 0.381899 5.77031e+17 0 0 4.65139e+14 6.71868e+14 0 
3 0 38.8267 6.01994e+17 252.94 145.887 138.194 7465.91 16.7669 -0.10664 6.0003e+17 0 0 3.61775e+14 1.60215e+15 0 
7 0 41.5567 6.44321e+17 1150.55 200.033 144.462 7402.07 33.9202 -0.253811 6.32021e+17 1.55046e+14 0 4.23794e+15 7.85569e+15 5.16821e+13 
39 0 37.3767 5.79512e+17 406.401 148.995 138.612 7456.32 -0.176108 -2.3795 5.77445e+17 0 0 8.26914e+14 1.24037e+15 0 
43 0 38.1 5.90727e+17 1206.69 201.573 148.665 7403.6 3.57243 2.27151 5.81062e+17 5.16821e+13 0 3.35934e+15 6.20186e+15 5.16821e+13 
75 0 37.4633 5.80856e+17 429.429 147.569 139.114 7453.52 0.561868 -1.8292 5.78633e+17 0 0 6.71868e+14 1.49878e+15 5.16821e+13 
79 0 37.7833 5.85817e+17 1117.76 172.611 146.22 7413.91 4.09616 1.1955 5.77083e+17 0 0 2.42906e+15 6.30522e+15 0 
111 0 37.7033 5.84577e+17 410.058 146.914 136.403 7455.94 3.04434 -0.631802 5.81993e+17 0 0 6.71868e+14 1.91224e+15 0 
115 0 37.88 5.87316e+17 1048 180.835 145.145 7410.47 5.31299 -0.792378 5.77548e+17 5.16821e+13 0 3.10093e+15 6.61531e+15 0 
147 0 37.5267 5.81838e+17 479.825 153.766 138.942 7450.69 0.30207 -1.06858 5.7853e+17 0 0 1.24037e+15 2.06729e+15 0 
151 0 38.35 5.94603e+17 1158.79 207.991 145.226 7406.97 6.44023 3.85636 5.84887e+17 0 0 3.61775e+15 6.09849e+15 0 
183 0 37.7467 5.85249e+17 407.947 141.446 139.374 7457.91 -1.66377 -0.87749 5.82716e+17 0 0 5.68504e+14 1.96392e+15 0 
187 0 38.0933 5.90624e+17 977.067 175.068 147.656 7419.38 2.72221 1.12778 5.83078e+17 0 0 2.3257e+15 5.2199e+15 0 
219 0 37.66 5.83905e+17 382.552 149.741 138.087 7457.95 1.40412 -2.2833 5.81631e+17 0 0 6.71868e+14 1.60215e+15 0 
223 0 37.7167 5.84783e+17 957.992 176.447 143.848 7415.54 6.31759 1.58607 5.76514e+17 0 0 2.8942e+15 5.2199e+15 1.55046e+14 
255 0 37.4967 5.81372e+17 350.857 145.013 136.683 7462.49 2.06815 0.54485 5.79564e+17 0 0 3.61775e+14 1.4471e+15 0 
259 0 37.88 5.87316e+17 798.881 160.592 140.664 7427.31 7.41479 1.94184 5.81114e+17 0 0 1.91224e+15 4.28962e+15 0 
291 0 37.3133 5.7853e+17 326.264 141.714 137.264 7457.95 -1.30627 -2.28006 5.76721e+17 0 0 3.61775e+14 1.4471e+15 0 
295 0 37.51 5.81579e+17 759.277 178.656 149.354 7433.69 3.29337 1.18437 5.75636e+17 0 0 2.22233e+15 3.72111e+15 0 
327 0 37.4167 5.80132e+17 314.732 142.682 137.739 7464.25 0.286215 0.0472927 5.78788e+17 0 0 3.10093e+14 1.03364e+15 0 
331 0 37.5367 5.81993e+17 600.933 160.481 141.088 7442.97 7.03041 -1.29499 5.77238e+17 0 0 1.75719e+15 2.94588e+15 5.16821e+13 
363 0 37.51 5.81579e+17 268.949 139.899 137.542 7466.05 -2.98144 -0.699872 5.80184e+17 0 0 5.16821e+14 8.78596e+14 0 
367 0 37.73 5.8499e+17 574.917 165.792 141.671 7443.6 3.88235 2.69879 5.80339e+17 0 0 1.39542e+15 3.25598e+15 0 
399 0 37.35 5.79098e+17 373.82 150.487 137.129 7459.7 2.6523 -0.0140044 5.77341e+17 0 0 4.65139e+14 1.29205e+15 0 
403 0 37.34 5.78943e+17 532.37 147.516 141.626 7446.94 3.98376 0.158069 5.75119e+17 0 0 1.13701e+15 2.68747e+15 0 
435 0 37.68 5.84215e+17 274.521 141.242 136.418 7463.01 2.9088 -3.71913 5.8282e+17 0 0 4.65139e+14 9.30279e+14 0 
439 0 37.8133 5.86282e+17 538.703 159.581 139.818 7447.22 6.44198 -0.429689 5.8282e+17 0 0 1.13701e+15 2.3257e+15 0 
471 0 37.7367 5.85094e+17 250.756 138.253 136.717 7466.64 1.48468 1.15885 5.8406e+17 0 0 3.10093e+14 7.2355e+14 0 
475 0 37.9233 5.87988e+17 507.416 150.489 139.326 7448.37 6.76624 -1.29413 5.84267e+17 0 0 1.13701e+15 2.58411e+15 0 
507 0 37.5233 5.81786e+17 254.03 150.933 136.115 7466.57 0.488999 0.117487 5.80856e+17 0 0 2.58411e+14 6.71868e+14 0 
511 0 37.6 5.82975e+17 416.417 157.256 138.92 7456.33 5.10517 -0.963999 5.8039e+17 0 0 8.26914e+14 1.75719e+15 0 
543 0 37.1967 5.76721e+17 195.015 138.849 136.318 7468 1.72765 0.0422078 5.75946e+17 0 0 1.03364e+14 6.71868e+14 0 
547 0 37.4633 5.80856e+17 326.365 156.125 137.134 7459.78 1.85308 0.186817 5.78788e+17 0 0 6.71868e+14 1.39542e+15 0 
579 0 37.6833 5.84267e+17 241.33 137.786 137.328 7467.84 2.74482 -0.479689 5.8375e+17 0 0 1.55046e+14 3.61775e+14 0 
583 0 37.21 5.76928e+17 294.063 142.23 137.474 7464.17 0.310813 -2.48991 5.75171e+17 0 0 5.16821e+14 1.24037e+15 0 
615 0 37.3667 5.79357e+17 177.162 138.393 137.136 7469.67 1.39336 0.606809 5.78943e+17 0 0 1.55046e+14 2.06729e+14 5.16821e+13 
619 0 37.7667 5.85559e+17 342.661 142.436 138.394 7457.89 4.46205 -0.232314 5.83491e+17 0 0 7.2355e+14 1.34374e+15 0 
4 0 40.2967 6.24785e+17 508.365 144.206 141.506 7450.54 21.5687 -0.568827 6.21426e+17 0 0 1.08533e+15 2.27401e+15 0 
8 0 42.2633 6.55278e+17 1691.22 233.085 158.976 7369.18 34.6927 0.182797 6.37396e+17 5.16821e+13 0 5.94345e+15 1.17318e+16 1.55046e+14 
40 0 37.9467 5.8835e+17 475.355 151.467 137.561 7452.82 -0.0583714 -2.45438 5.85249e+17 0 0 8.26914e+14 2.27401e+15 0 
44 0 38.74 6.0065e+17 1676.46 215.437 151.024 7372.5 -1.84441 2.00043 5.853e+17 0 0 6.3569e+15 8.99269e+15 0 
76 0 38.06 5.90107e+17 509.486 156.958 141.973 7449.48 -1.39406 -0.305218 5.8561e+17 5.16821e+13 0 1.75719e+15 2.68747e+15 0 
80 0 38.2333 5.92794e+17 1682.32 204.234 148.418 7373.3 4.5262 -1.23034 5.78685e+17 5.16821e+13 0 5.01317e+15 8.99269e+15 5.16821e+13 
112 0 37.38 5.79564e+17 605.965 147.632 140.212 7444.04 3.34049 1.90938 5.75636e+17 0 0 1.29205e+15 2.63579e+15 0 
116 0 38.62 5.98789e+17 1558.06 197.035 148.565 7382.3 7.12144 0.993242 5.84887e+17 0 0 5.06485e+15 8.73428e+15 1.03364e+14 
148 0 37.63 5.8344e+17 380.459 147.374 138.887 7453.87 1.1627 1.21961 5.80494e+17 0 0 7.75232e+14 2.17065e+15 0 
152 0 37.84 5.86696e+17 1391.76 200.861 144.458 7394.34 6.44123 0.224666 5.74447e+17 0 0 3.92784e+15 8.32083e+15 0 
184 0 38.0867 5.9052e+17 549.163 151.275 137.972 7448.8 1.29332 -1.909 5.86902e+17 0 0 1.29205e+15 2.3257e+15 0 
188 0 38.1967 5.92226e+17 1561.33 215.752 148.003 7376.39 7.88189 6.05832 5.78427e+17 0 0 4.96149e+15 8.78596e+15 5.16821e+13 
220 0 37.9667 5.8866e+17 429.705 148.257 138.257 7458.6 0.69178 1.14467 5.86076e+17 0 0 8.26914e+14 1.75719e+15 0 
224 0 38.3367 5.94396e+17 1237.55 209.591 147.532 7395.25 10.0168 -2.51789 5.81941e+17 0 0 3.97953e+15 8.42419e+15 5.16821e+13 
256 0 37.6633 5.83957e+17 395.607 147.172 136.118 7457.75 4.90641 -0.244349 5.82148e+17 0 0 4.13457e+14 1.39542e+15 0 
260 0 38.0133 5.89383e+17 1405.09 201.671 146.219 7389.68 9.69551 1.64015 5.7822e+17 5.16821e+13 0 3.56607e+15 7.49391e+15 5.16821e+13 
292 0 37.5333 5.81941e+17 422.488 146.198 138.631 7456.53 0.296362 0.359019 5.7946e+17 0 0 8.78596e+14 1.60215e+15 0 
296 0 38.2633 5.93259e+17 863.401 186.093 148.879 7424.42 7.15162 -0.815164 5.86231e+17 0 0 2.53243e+15 4.39298e+15 1.03364e+14 
328 0 37.6567 5.83853e+17 356.256 145.263 141.023 7458.86 2.2661 1.95292 5.81889e+17 0 0 3.10093e+14 1.65383e+15 0 
332 0 38.2767 5.93466e+17 916.237 185.945 139.651 7422.34 8.91925 2.62349 5.86386e+17 0 0 2.17065e+15 4.9098e+15 0 
364 0 37.7833 5.85817e+17 417.061 148.778 138.118 7456.54 0.464373 -1.32908 5.8344e+17 0 0 8.26914e+14 1.55046e+15 0 
368 0 37.6667 5.84008e+17 812.361 183.354 146.438 7427.26 5.34238 0.781479 5.77341e+17 0 0 2.73915e+15 3.87616e+15 5.16821e+13 
400 0 37.4 5.79874e+17 279.782 144.876 137.632 7466.08 2.13985 -0.446842 5.78685e+17 0 0 4.65139e+14 7.2355e+14 0 
404 0 38.18 5.91967e+17 708.854 176.983 138.786 7433.45 12.1803 0.951342 5.86644e+17 5.16821e+13 0 1.55046e+15 3.72111e+15 0 
436 0 37.6067 5.83078e+17 316.432 156.624 137.645 7461.82 2.21869 0.145709 5.81166e+17 0 0 6.71868e+14 1.24037e+15 0 
440 0 37.5867 5.82768e+17 626.406 157.302 140.973 7442.73 5.70098 -0.624355 5.78427e+17 0 0 1.4471e+15 2.8942e+15 0 
472 0 37.9033 5.87678e+17 315.789 142.228 137.52 7462.74 2.40789 -1.0999 5.85972e+17 0 0 4.13457e+14 1.29205e+15 0 
476 0 37.4533 5.80701e+17 511.056 154.391 139.356 7449.82 5.54815 0.656382 5.76928e+17 0 0 1.24037e+15 2.53243e+15 0 
508 0 37.4733 5.81011e+17 289.868 138.027 138.107 7463.22 0.484856 0.560969 5.79977e+17 0 0 2.58411e+14 7.75232e+14 0 
512 0 37.3067 5.78427e+17 381.952 168.343 139.879 7457.71 6.54908 1.06132 5.75998e+17 0 0 6.20186e+14 1.80888e+15 0 
544 0 37.55 5.82199e+17 238.666 148.246 137.612 7467.36 1.65289 0.16927 5.81011e+17 0 0 3.10093e+14 8.26914e+14 5.16821e+13 
548 0 37.6333 5.83491e+17 528.352 151.117 138.895 7449.59 6.82008 -1.5564 5.79822e+17 0 0 1.34374e+15 2.3257e+15 0 
580 0 37.3 5.78323e+17 228.061 137.514 136.905 7466.15 1.28499 2.00681 5.77703e+17 0 0 1.55046e+14 4.65139e+14 0 
584 0 38.05 5.89952e+17 323.399 140.846 136.929 7462.71 6.49131 -1.3343 5.88246e+17 0 0 6.20186e+14 1.08533e+15 0 
616 0 37.4733 5.81011e+17 183.617 140.677 137.638 7469.88 -0.514555 1.18075 5.80701e+17 0 0 1.03364e+14 2.06729e+14 0 
620 0 37.6433 5.83646e+17 322.343 151.146 137.51 7458.48 2.8774 -0.942037 5.81941e+17 0 0 7.2355e+14 9.81961e+14 0 
10 0 44.6667 6.92541e+17 3371 334.6 167.681 7250.1 38.0913 -2.8648 6.5502e+17 5.16821e+13 0 1.42643e+16 2.30502e+16 1.55046e+14 
46 0 39.7967 6.17033e+17 3232.2 364.917 180.593 7257.97 5.80046 -1.80599 5.84939e+17 1.03364e+14 0 1.19386e+16 1.99493e+16 1.03364e+14 
82 0 40.0233 6.20548e+17 3441.41 326.886 164.851 7249.52 13.5942 -4.31579 5.88039e+17 1.55046e+14 0 1.14218e+16 2.06729e+16 2.58411e+14 
118 0 39.2 6.07782e+17 3451.46 291.118 164.277 7254.3 20.5467 -2.25565 5.78116e+17 5.16821e+13 0 1.09566e+16 1.85539e+16 1.03364e+14 
154 0 39.1833 6.07524e+17 3031.53 320.208 164.789 7272.98 20.3651 2.1843 5.78737e+17 1.03364e+14 0 1.05948e+16 1.79337e+16 1.55046e+14 
190 0 39.3333 6.09849e+17 2714.55 288.881 160.165 7302.1 16.7965 1.41428 5.83905e+17 2.06729e+14 0 9.87129e+15 1.58147e+16 5.16821e+13 
226 0 38.8833 6.02872e+17 2340.85 329.855 162.423 7325.22 22.9671 -0.268766 5.80235e+17 5.16821e+13 0 8.73428e+15 1.37991e+16 5.16821e+13 
262 0 38.97 6.04216e+17 1928.31 239.873 151.98 7352.31 23.3297 -1.91088 5.86179e+17 0 0 6.09849e+15 1.19386e+16 0 
298 0 38.37 5.94913e+17 1848.45 247.423 153.032 7359.04 22.4072 0.743418 5.80287e+17 0 0 5.99513e+15 8.63092e+15 0 
334 0 38.3533 5.94655e+17 1467.79 217.998 148.527 7384.41 15.7398 0.157805 5.81011e+17 0 0 4.80644e+15 8.6826e+15 1.55046e+14 
370 0 38.4067 5.95482e+17 1145.64 182.775 148.132 7408.8 14.655 -1.75978 5.84732e+17 5.16821e+13 0 3.72111e+15 6.92541e+15 5.16821e+13 
406 0 37.72 5.84835e+17 890.803 197.378 150.181 7420.26 13.0624 -0.712865 5.75739e+17 0 0 2.99756e+15 6.04681e+15 5.16821e+13 
442 0 37.63 5.8344e+17 856.054 195.665 142.849 7424.7 11.4453 0.266652 5.76566e+17 0 0 2.37738e+15 4.49635e+15 0 
478 0 38.05 5.89952e+17 722.925 160.742 141.136 7433.86 9.96192 -1.66628 5.8437e+17 5.16821e+13 0 2.27401e+15 3.25598e+15 0 
514 0 37.56 5.82354e+17 655.313 178.469 141.312 7438.92 10.969 -0.00996715 5.77135e+17 5.16821e+13 0 1.4471e+15 3.72111e+15 0 
550 0 37.56 5.82354e+17 577.524 167.979 143.86 7444.08 6.2649 1.15345 5.77806e+17 5.16821e+13 0 1.65383e+15 2.84252e+15 0 
586 0 37.7667 5.85559e+17 515.707 168.818 145.035 7447.87 8.46867 0.01118 5.81321e+17 0 0 1.24037e+15 2.94588e+15 5.16821e+13 
622 0 37.5167 5.81683e+17 435.571 166.767 140.337 7452.19 7.00025 1.46837 5.7853e+17 0 0 1.24037e+15 1.91224e+15 0 
11 0 46.2567 7.17193e+17 5223.29 417.515 182.414 7116.28 37.718 -5.28223 6.56828e+17 3.10093e+14 0 2.19132e+16 3.81414e+16 0 
47 0 40.81 6.32745e+17 5422.38 460.168 193.823 7098.81 12.9519 2.42994 5.79925e+17 1.55046e+14 0 1.98976e+16 3.26631e+16 1.03364e+14 
83 0 40.66 6.30419e+17 4879.16 482.589 187.547 7135.3 17.7839 -3.06835 5.81889e+17 1.03364e+14 0 1.77787e+16 3.05958e+16 5.16821e+13 
119 0 40.8233 6.32951e+17 4854.8 435.672 185.916 7143.49 29.0969 -1.49763 5.86282e+17 2.58411e+14 0 1.79854e+16 2.81668e+16 2.58411e+14 
155 0 40.6333 6.30005e+17 4449.02 449.452 188.376 7169.32 34.6083 -3.06397 5.86024e+17 1.03364e+14 0 1.59181e+16 2.76499e+16 3.10093e+14 
191 0 40.2967 6.24785e+17 3873.24 390.219 183.681 7212.36 28.6734 -0.346579 5.87161e+17 0 0 1.35407e+16 2.39288e+16 1.55046e+14 
227 0 39.4733 6.1202e+17 3367.85 346.608 167.224 7245.45 30.3651 3.84225 5.78375e+17 2.06729e+14 0 1.18352e+16 2.14998e+16 1.03364e+14 
263 0 39.23 6.08247e+17 2786.92 314.577 167.485 7290.04 32.3517 2.80971 5.82975e+17 1.03364e+14 0 9.14774e+15 1.60215e+16 0 
299 0 38.76 6.0096e+17 2374.18 276.237 160.184 7322.54 26.9629 1.08858 5.78943e+17 1.03364e+14 0 7.95905e+15 1.38508e+16 1.03364e+14 
335 0 38.5733 5.98066e+17 1985.85 245.001 158.344 7348.01 27.3568 2.28345 5.78995e+17 5.16821e+13 0 6.61531e+15 1.24037e+16 0 
371 0 38.69 5.99875e+17 1645.27 224.304 158.975 7370.19 21.7044 1.52958 5.84267e+17 0 0 5.7884e+15 9.76793e+15 5.16821e+13 
407 0 38.5133 5.97136e+17 1283.1 215.718 144.833 7395.1 19.4652 0.273457 5.86127e+17 0 0 4.39298e+15 6.56363e+15 5.16821e+13 
443 0 37.75 5.853e+17 1227.9 214.751 148.982 7398.39 21.5899 -2.60366 5.7424e+17 5.16821e+13 0 4.08289e+15 6.87373e+15 5.16821e+13 
479 0 38.31 5.93983e+17 922.475 185.422 143.039 7419.28 16.793 0.324088 5.86696e+17 5.16821e+13 0 2.58411e+15 4.59971e+15 5.16821e+13 
515 0 37.5133 5.81631e+17 733.08 176.441 142.325 7432.57 9.38107 0.309633 5.75377e+17 5.16821e+13 0 2.37738e+15 3.82448e+15 0 
551 0 37.4467 5.80597e+17 670.888 171.633 141.702 7439.46 10.9435 0.937801 5.74654e+17 0 0 2.0156e+15 3.92784e+15 0 
587 0 37.8867 5.87419e+17 538.461 154.967 138.681 7448.79 10.0019 -0.897455 5.83388e+17 0 0 1.55046e+15 2.48074e+15 0 
623 0 37.5933 5.82871e+17 413.802 150.286 141.195 7454.59 8.19645 0.0516263 5.80287e+17 0 0 1.03364e+15 1.55046e+15 0 
12 0 47.91 7.42827e+17 7316.15 585.407 219.374 6942.53 54.1671 7.25117 6.56777e+17 2.06729e+14 0 3.49888e+16 5.03384e+16 5.16821e+14 
48 0 42.59 6.60343e+17 7927.38 646.244 239.033 6891.74 23.5102 7.8284 5.79615e+17 1.55046e+14 0 3.20429e+16 4.83228e+16 2.06729e+14 
84 0 43.2567 6.70679e+17 7932.08 714.708 233.402 6892.61 36.8097 -2.83579 5.88505e+17 2.06729e+14 0 3.08026e+16 5.09069e+16 2.58411e+14 
120 0 42.52 6.59257e+17 7338.51 624.191 210.944 6938.75 45.8573 4.1109 5.853e+17 5.16821e+13 0 2.84769e+16 4.52219e+16 2.06729e+14 
156 0 41.7667 6.47577e+17 6762.78 596.358 226.82 6986.57 51.7866 1.1423 5.80287e+17 1.03364e+14 0 2.59444e+16 4.11907e+16 5.16821e+13 
192 0 41.2233 6.39153e+17 5700.01 452.639 205.134 7061.55 60.4884 3.90482 5.8282e+17 1.55046e+14 0 2.08279e+16 3.52989e+16 5.16821e+13 
228 0 40.65 6.30264e+17 4759.48 434.973 186.313 7146.76 57.7066 -0.710007 5.8406e+17 1.55046e+14 0 1.74169e+16 2.83218e+16 3.10093e+14 
264 0 40.2567 6.24165e+17 4031.68 389.259 188.141 7200.11 53.8544 1.10714 5.8406e+17 2.58411e+14 0 1.68484e+16 2.29986e+16 0 
300 0 40.2967 6.24785e+17 3273.94 344.63 169.504 7251.61 48.557 -5.02111 5.92949e+17 0 0 1.17835e+16 2.00527e+16 0 
336 0 39.2533 6.08609e+17 2860.8 361.376 171.908 7284.75 40.6766 1.54782 5.82199e+17 5.16821e+13 0 1.01297e+16 1.61248e+16 1.03364e+14 
372 0 38.6233 5.98841e+17 2023.31 287.28 164.171 7343.23 31.7647 4.37835 5.79202e+17 5.16821e+13 0 8.47587e+15 1.106e+16 5.16821e+13 
408 0 38.3833 5.9512e+17 1759.89 248.549 154.533 7358.34 31.2262 0.860438 5.78582e+17 5.16821e+13 0 5.7884e+15 1.06465e+16 5.16821e+13 
13 0 52.83 8.1911e+17 11544.8 923.646 283.065 6548.85 45.5648 -6.24654 6.75486e+17 4.65139e+14 0 5.9021e+16 8.37768e+16 3.61775e+14 
49 0 47.93 7.43138e+17 12291.1 960.799 304.911 6485.47 45.6459 -0.351448 6.03803e+17 3.10093e+14 0 5.75222e+16 8.1296e+16 2.06729e+14 
85 0 46.1067 7.14867e+17 11734.9 930.69 290.164 6540.67 61.3643 -7.29377 5.88246e+17 5.68504e+14 0 4.95115e+16 7.63345e+16 2.06729e+14 
121 0 45.88 7.11353e+17 10583.4 920.721 294.499 6642.66 81.9802 -2.47983 5.96257e+17 4.13457e+14 0 4.61005e+16 6.84788e+16 1.03364e+14 
157 0 44.8433 6.9528e+17 9322.53 779.337 259.909 6761.76 88.7936 6.20536 5.96102e+17 3.10093e+14 0 3.94335e+16 5.91244e+16 3.10093e+14 
193 0 43.7367 6.78121e+17 8144.93 707.056 236.047 6868.73 91.29 -2.44711 5.95482e+17 4.13457e+14 0 3.24047e+16 4.95115e+16 3.10093e+14 
229 0 42.04 6.51815e+17 6768.47 589.575 204.317 6986.9 82.4937 0.0708019 5.86747e+17 1.55046e+14 0 2.59961e+16 3.87099e+16 2.06729e+14 
265 0 41.4967 6.43391e+17 5456.65 500.606 196.189 7077.06 77.8162 0.208176 5.8928e+17 1.03364e+14 0 2.0001e+16 3.39552e+16 5.16821e+13 
301 0 40.1233 6.22098e+17 4368.08 480.851 189.99 7165.6 67.303 -0.248654 5.79615e+17 1.03364e+14 0 1.63832e+16 2.59961e+16 0 
337 0 39.6067 6.14087e+17 3444.53 373.01 174.484 7243.84 59.7786 -0.219161 5.83026e+17 5.16821e+13 0 1.31273e+16 1.78303e+16 5.16821e+13 
373 0 39.3067 6.09436e+17 2741.86 306.223 163.734 7287.05 44.3439 -1.48731 5.8313e+17 1.03364e+14 0 9.45783e+15 1.66417e+16 1.03364e+14 
409 0 39.04 6.05301e+17 2149.17 294.706 159.192 7333.29 39.4513 0.206374 5.83646e+17 0 0 8.32083e+15 1.31789e+16 1.55046e+14 
445 0 38.8233 6.01942e+17 1612.99 240.156 156.255 7369.4 31.3048 -3.36237 5.86696e+17 0 0 5.89176e+15 9.35447e+15 0 
481 0 38.6067 5.98583e+17 1336.4 254.545 150.176 7389.93 28.5285 0.0714274 5.85869e+17 1.03364e+14 0 4.3413e+15 8.21746e+15 5.16821e+13 
517 0 38.4667 5.96412e+17 1083.39 212.009 157.094 7404.38 24.6538 0.494895 5.84732e+17 5.16821e+13 0 4.80644e+15 6.82204e+15 0 
553 0 37.8933 5.87523e+17 729.661 189.432 143.309 7431.1 14.2299 -0.342932 5.80287e+17 0 0 3.04925e+15 4.18625e+15 0 
589 0 38.0333 5.89693e+17 647.74 189.352 144.416 7435.22 13.6785 0.0209537 5.83233e+17 0 0 2.73915e+15 3.72111e+15 0 
625 0 37.9033 5.87678e+17 518.109 178.874 141.324 7445.66 11.7365 -0.69117 5.8282e+17 5.16821e+13 0 1.80888e+15 2.99756e+15 0 
444 0 38.1367 5.91295e+17 1378.84 216.202 150.203 7390.85 24.1185 3.34271 5.78943e+17 5.16821e+13 0 4.3413e+15 7.95905e+15 0 
480 0 38.0967 5.90675e+17 1226.81 225.077 153.625 7399.42 22.2697 -3.31011 5.79719e+17 5.16821e+13 0 3.56607e+15 7.28718e+15 5.16821e+13 
516 0 37.76 5.85455e+17 901.904 194.091 146.292 7421.57 20.8125 -2.00987 5.78013e+17 1.03364e+14 0 2.42906e+15 4.9098e+15 0 
552 0 38.6333 5.98996e+17 788.756 171.596 145.283 7431.8 11.8413 -2.98182 5.92743e+17 0 0 2.37738e+15 3.87616e+15 0 
588 0 37.4567 5.80752e+17 718.744 190.952 145.671 7434.53 16.317 3.41208 5.74499e+17 0 0 2.53243e+15 3.72111e+15 0 
624 0 38.06 5.90107e+17 496.475 158.972 141.046 7448.13 10.7508 -1.17754 5.8561e+17 5.16821e+13 0 1.34374e+15 3.10093e+15 0 
14 0 60.96 9.45163e+17 16252.1 1363.95 398.156 5999.66 62.1992 1.23844 6.96003e+17 7.75232e+14 0 1.02072e+17 1.45899e+17 4.13457e+14 
50 0 54.9833 8.52497e+17 17028 1508.97 432.425 5884.75 63.8593 -0.43958 6.14604e+17 6.71868e+14 0 9.53019e+16 1.41557e+17 3.61775e+14 
86 0 52.8633 8.19627e+17 16756.6 1489.11 401.778 5934.51 105.388 -0.261123 6.03699e+17 5.16821e+14 0 8.66193e+16 1.27862e+17 9.30279e+14 
122 0 51.05 7.91512e+17 15289.1 1404.2 378.605 6119.94 134.557 -0.888318 6.03234e+17 3.10093e+14 0 7.87636e+16 1.08739e+17 4.65139e+14 
158 0 48.5767 7.53164e+17 13763.8 1164.28 329.219 6302.53 147.258 2.38431 5.94758e+17 5.68504e+14 0 6.30005e+16 9.4475e+16 3.61775e+14 
194 0 46.7967 7.25566e+17 11722.7 1007.77 298.339 6524.34 150.405 1.31989 5.97652e+17 6.71868e+14 0 5.43696e+16 7.26651e+16 2.06729e+14 
230 0 44.77 6.94143e+17 9473.29 804.089 261.349 6728.37 138.141 0.924957 5.93156e+17 4.13457e+14 0 4.05188e+16 5.98479e+16 2.06729e+14 