ITEM: TIMESTEP
13000
ITEM: NUMBER OF CELLS
1036
ITEM: BOX BOUNDS oo ao pp
-10 10
0 10
-0.5 0.5
ITEM: CELLS id proc f_avg_n f_avg_nrho f_avg_temp_tra f_avg_temp_rot f_avg_temp_vib f_avg_vel[1] f_avg_vel[2] f_avg_vel[3] f_avg_nrho_CO2 f_avg_nrho_O2 f_avg_nrho_C2 f_avg_nrho_CO f_avg_nrho_O f_avg_nrho_C 
1 0 0 0 0 0 0 0 0 0 0 0 0 0 0 0 
5 0 0 0 0 0 0 0 0 0 0 0 0 0 0 0 
9 0 0 0 0 0 0 0 0 0 0 0 0 0 0 0 
37 0 0 0 0 0 0 0 0 0 0 0 0 0 0 0 
41 0 0 0 0 0 0 0 0 0 0 0 0 0 0 0 
45 0 0 0 0 0 0 0 0 0 0 0 0 0 0 0 
73 0 0 0 0 0 0 0 0 0 0 0 0 0 0 0 
77 0 0 0 0 0 0 0 0 0 0 0 0 0 0 0 
81 0 0 0 0 0 0 0 0 0 0 0 0 0 0 0 
109 0 0 0 0 0 0 0 0 0 0 0 0 0 0 0 
113 0 0 0 0 0 0 0 0 0 0 0 0 0 0 0 
117 0 0 0 0 0 0 0 0 0 0 0 0 0 0 0 
145 0 0 0 0 0 0 0 0 0 0 0 0 0 0 0 
149 0 0 0 0 0 0 0 0 0 0 0 0 0 0 0 
153 0 0 0 0 0 0 0 0 0 0 0 0 0 0 0 
181 0 0 0 0 0 0 0 0 0 0 0 0 0 0 0 
185 0 0 0 0 0 0 0 0 0 0 0 0 0 0 0 
189 0 0 0 0 0 0 0 0 0 0 0 0 0 0 0 
217 0 0 0 0 0 0 0 0 0 0 0 0 0 0 0 
221 0 0 0 0 0 0 0 0 0 0 0 0 0 0 0 
225 0 0 0 0 0 0 0 0 0 0 0 0 0 0 0 
253 0 0 0 0 0 0 0 0 0 0 0 0 0 0 0 
257 0 0 0 0 0 0 0 0 0 0 0 0 0 0 0 
261 0 0 0 0 0 0 0 0 0 0 0 0 0 0 0 
289 0 0 0 0 0 0 0 0 0 0 0 0 0 0 0 
293 0 0 0 0 0 0 0 0 0 0 0 0 0 0 0 
297 0 0 0 0 0 0 0 0 0 0 0 0 0 0 0 
325 0 0 0 0 0 0 0 0 0 0 0 0 0 0 0 
329 0 0 0 0 0 0 0 0 0 0 0 0 0 0 0 
333 0 0 0 0 0 0 0 0 0 0 0 0 0 0 0 
361 0 0 0 0 0 0 0 0 0 0 0 0 0 0 0 
365 0 0 0 0 0 0 0 0 0 0 0 0 0 0 0 
369 0 0 0 0 0 0 0 0 0 0 0 0 0 0 0 
397 0 0 0 0 0 0 0 0 0 0 0 0 0 0 0 
401 0 0 0 0 0 0 0 0 0 0 0 0 0 0 0 
405 0 0 0 0 0 0 0 0 0 0 0 0 0 0 0 
433 0 0 0 0 0 0 0 0 0 0 0 0 0 0 0 
437 0 0 0 0 0 0 0 0 0 0 0 0 0 0 0 
441 0 0 0 0 0 0 0 0 0 0 0 0 0 0 0 
469 0 0 0 0 0 0 0 0 0 0 0 0 0 0 0 
473 0 0 0 0 0 0 0 0 0 0 0 0 0 0 0 
477 0 0 0 0 0 0 0 0 0 0 0 0 0 0 0 
505 0 0 0 0 0 0 0 0 0 0 0 0 0 0 0 
509 0 0 0 0 0 0 0 0 0 0 0 0 0 0 0 
513 0 0 0 0 0 0 0 0 0 0 0 0 0 0 0 
541 0 0 0 0 0 0 0 0 0 0 0 0 0 0 0 
545 0 0 0 0 0 0 0 0 0 0 0 0 0 0 0 
549 0 0 0 0 0 0 0 0 0 0 0 0 0 0 0 
577 0 0 0 0 0 0 0 0 0 0 0 0 0 0 0 
581 0 0 0 0 0 0 0 0 0 0 0 0 0 0 0 
585 0 0 0 0 0 0 0 0 0 0 0 0 0 0 0 
613 0 0 0 0 0 0 0 0 0 0 0 0 0 0 0 
617 0 0 0 0 0 0 0 0 0 0 0 0 0 0 0 
621 0 0 0 0 0 0 0 0 0 0 0 0 0 0 0 
2 0 0 0 0 0 0 0 0 0 0 0 0 0 0 0 
6 0 0 0 0 0 0 0 0 0 0 0 0 0 0 0 
38 0 0 0 0 0 0 0 0 0 0 0 0 0 0 0 
42 0 0 0 0 0 0 0 0 0 0 0 0 0 0 0 
74 0 0 0 0 0 0 0 0 0 0 0 0 0 0 0 
78 0 0 0 0 0 0 0 0 0 0 0 0 0 0 0 
110 0 0 0 0 0 0 0 0 0 0 0 0 0 0 0 
114 0 0 0 0 0 0 0 0 0 0 0 0 0 0 0 
146 0 0 0 0 0 0 0 0 0 0 0 0 0 0 0 
150 0 0 0 0 0 0 0 0 0 0 0 0 0 0 0 
182 0 0 0 0 0 0 0 0 0 0 0 0 0 0 0 
186 0 0 0 0 0 0 0 0 0 0 0 0 0 0 0 
218 0 0 0 0 0 0 0 0 0 0 0 0 0 0 0 
222 0 0 0 0 0 0 0 0 0 0 0 0 0 0 0 
254 0 0 0 0 0 0 0 0 0 0 0 0 0 0 0 
258 0 0 0 0 0 0 0 0 0 0 0 0 0 0 0 
290 0 0 0 0 0 0 0 0 0 0 0 0 0 0 0 
294 0 0 0 0 0 0 0 0 0 0 0 0 0 0 0 
326 0 0 0 0 0 0 0 0 0 0 0 0 0 0 0 
330 0 0 0 0 0 0 0 0 0 0 0 0 0 0 0 
362 0 0 0 0 0 0 0 0 0 0 0 0 0 0 0 
366 0 0 0 0 0 0 0 0 0 0 0 0 0 0 0 
398 0 0 0 0 0 0 0 0 0 0 0 0 0 0 0 
402 0 0 0 0 0 0 0 0 0 0 0 0 0 0 0 
434 0 0 0 0 0 0 0 0 0 0 0 0 0 0 0 
438 0 0 0 0 0 0 0 0 0 0 0 0 0 0 0 
470 0 0 0 0 0 0 0 0 0 0 0 0 0 0 0 
474 0 0 0 0 0 0 0 0 0 0 0 0 0 0 0 
506 0 0 0 0 0 0 0 0 0 0 0 0 0 0 0 
510 0 0 0 0 0 0 0 0 0 0 0 0 0 0 0 
542 0 0 0 0 0 0 0 0 0 0 0 0 0 0 0 
546 0 0 0 0 0 0 0 0 0 0 0 0 0 0 0 
578 0 0 0 0 0 0 0 0 0 0 0 0 0 0 0 
582 0 0 0 0 0 0 0 0 0 0 0 0 0 0 0 
614 0 0 0 0 0 0 0 0 0 0 0 0 0 0 0 
618 0 0 0 0 0 0 0 0 0 0 0 0 0 0 0 
3 0 0 0 0 0 0 0 0 0 0 0 0 0 0 0 
7 0 0 0 0 0 0 0 0 0 0 0 0 0 0 0 
39 0 0 0 0 0 0 0 0 0 0 0 0 0 0 0 
43 0 0 0 0 0 0 0 0 0 0 0 0 0 0 0 
75 0 0 0 0 0 0 0 0 0 0 0 0 0 0 0 
79 0 0 0 0 0 0 0 0 0 0 0 0 0 0 0 
111 0 0 0 0 0 0 0 0 0 0 0 0 0 0 0 
115 0 0 0 0 0 0 0 0 0 0 0 0 0 0 0 
147 0 0 0 0 0 0 0 0 0 0 0 0 0 0 0 
151 0 0 0 0 0 0 0 0 0 0 0 0 0 0 0 
183 0 0 0 0 0 0 0 0 0 0 0 0 0 0 0 
187 0 0 0 0 0 0 0 0 0 0 0 0 0 0 0 
219 0 0 0 0 0 0 0 0 0 0 0 0 0 0 0 
223 0 0 0 0 0 0 0 0 0 0 0 0 0 0 0 
255 0 0 0 0 0 0 0 0 0 0 0 0 0 0 0 
259 0 0 0 0 0 0 0 0 0 0 0 0 0 0 0 
291 0 0 0 0 0 0 0 0 0 0 0 0 0 0 0 
295 0 0 0 0 0 0 0 0 0 0 0 0 0 0 0 
327 0 0 0 0 0 0 0 0 0 0 0 0 0 0 0 
331 0 0 0 0 0 0 0 0 0 0 0 0 0 0 0 
363 0 0 0 0 0 0 0 0 0 0 0 0 0 0 0 
367 0 0 0 0 0 0 0 0 0 0 0 0 0 0 0 
399 0 0 0 0 0 0 0 0 0 0 0 0 0 0 0 
403 0 0 0 0 0 0 0 0 0 0 0 0 0 0 0 
435 0 0 0 0 0 0 0 0 0 0 0 0 0 0 0 
439 0 0 0 0 0 0 0 0 0 0 0 0 0 0 0 
471 0 0 0 0 0 0 0 0 0 0 0 0 0 0 0 
475 0 0 0 0 0 0 0 0 0 0 0 0 0 0 0 
507 0 0 0 0 0 0 0 0 0 0 0 0 0 0 0 
511 0 0 0 0 0 0 0 0 0 0 0 0 0 0 0 
543 0 0 0 0 0 0 0 0 0 0 0 0 0 0 0 
547 0 0 0 0 0 0 0 0 0 0 0 0 0 0 0 
579 0 0 0 0 0 0 0 0 0 0 0 0 0 0 0 
583 0 0 0 0 0 0 0 0 0 0 0 0 0 0 0 
615 0 0 0 0 0 0 0 0 0 0 0 0 0 0 0 
619 0 0 0 0 0 0 0 0 0 0 0 0 0 0 0 
4 0 0 0 0 0 0 0 0 0 0 0 0 0 0 0 
8 0 0 0 0 0 0 0 0 0 0 0 0 0 0 0 
40 0 0 0 0 0 0 0 0 0 0 0 0 0 0 0 
44 0 0 0 0 0 0 0 0 0 0 0 0 0 0 0 
76 0 0 0 0 0 0 0 0 0 0 0 0 0 0 0 
80 0 0 0 0 0 0 0 0 0 0 0 0 0 0 0 
112 0 0 0 0 0 0 0 0 0 0 0 0 0 0 0 
116 0 0 0 0 0 0 0 0 0 0 0 0 0 0 0 
148 0 0 0 0 0 0 0 0 0 0 0 0 0 0 0 
152 0 0 0 0 0 0 0 0 0 0 0 0 0 0 0 
184 0 0 0 0 0 0 0 0 0 0 0 0 0 0 0 
188 0 0 0 0 0 0 0 0 0 0 0 0 0 0 0 
220 0 0 0 0 0 0 0 0 0 0 0 0 0 0 0 
224 0 0 0 0 0 0 0 0 0 0 0 0 0 0 0 
256 0 0 0 0 0 0 0 0 0 0 0 0 0 0 0 
260 0 0 0 0 0 0 0 0 0 0 0 0 0 0 0 
292 0 0 0 0 0 0 0 0 0 0 0 0 0 0 0 
296 0 0 0 0 0 0 0 0 0 0 0 0 0 0 0 
328 0 0 0 0 0 0 0 0 0 0 0 0 0 0 0 
332 0 0 0 0 0 0 0 0 0 0 0 0 0 0 0 
364 0 0 0 0 0 0 0 0 0 0 0 0 0 0 0 
368 0 0 0 0 0 0 0 0 0 0 0 0 0 0 0 
400 0 0 0 0 0 0 0 0 0 0 0 0 0 0 0 
404 0 0 0 0 0 0 0 0 0 0 0 0 0 0 0 
436 0 0 0 0 0 0 0 0 0 0 0 0 0 0 0 
440 0 0 0 0 0 0 0 0 0 0 0 0 0 0 0 
472 0 0 0 0 0 0 0 0 0 0 0 0 0 0 0 
476 0 0 0 0 0 0 0 0 0 0 0 0 0 0 0 
508 0 0 0 0 0 0 0 0 0 0 0 0 0 0 0 
512 0 0 0 0 0 0 0 0 0 0 0 0 0 0 0 
544 0 0 0 0 0 0 0 0 0 0 0 0 0 0 0 
548 0 0 0 0 0 0 0 0 0 0 0 0 0 0 0 
580 0 0 0 0 0 0 0 0 0 0 0 0 0 0 0 
584 0 0 0 0 0 0 0 0 0 0 0 0 0 0 0 
616 0 0 0 0 0 0 0 0 0 0 0 0 0 0 0 
620 0 0 0 0 0 0 0 0 0 0 0 0 0 0 0 
10 0 0 0 0 0 0 0 0 0 0 0 0 0 0 0 
46 0 0 0 0 0 0 0 0 0 0 0 0 0 0 0 
82 0 0 0 0 0 0 0 0 0 0 0 0 0 0 0 
118 0 0 0 0 0 0 0 0 0 0 0 0 0 0 0 
154 0 0 0 0 0 0 0 0 0 0 0 0 0 0 0 
190 0 0 0 0 0 0 0 0 0 0 0 0 0 0 0 
226 0 0 0 0 0 0 0 0 0 0 0 0 0 0 0 
262 0 0 0 0 0 0 0 0 0 0 0 0 0 0 0 
298 0 0 0 0 0 0 0 0 0 0 0 0 0 0 0 
334 0 0 0 0 0 0 0 0 0 0 0 0 0 0 0 
370 0 0 0 0 0 0 0 0 0 0 0 0 0 0 0 
406 0 0 0 0 0 0 0 0 0 0 0 0 0 0 0 
442 0 0 0 0 0 0 0 0 0 0 0 0 0 0 0 
478 0 0 0 0 0 0 0 0 0 0 0 0 0 0 0 
514 0 0 0 0 0 0 0 0 0 0 0 0 0 0 0 
550 0 0 0 0 0 0 0 0 0 0 0 0 0 0 0 
586 0 0 0 0 0 0 0 0 0 0 0 0 0 0 0 
622 0 0 0 0 0 0 0 0 0 0 0 0 0 0 0 
11 0 0 0 0 0 0 0 0 0 0 0 0 0 0 0 
47 0 0 0 0 0 0 0 0 0 0 0 0 0 0 0 
83 0 0 0 0 0 0 0 0 0 0 0 0 0 0 0 
119 0 0 0 0 0 0 0 0 0 0 0 0 0 0 0 
155 0 0 0 0 0 0 0 0 0 0 0 0 0 0 0 
191 0 0 0 0 0 0 0 0 0 0 0 0 0 0 0 
227 0 0 0 0 0 0 0 0 0 0 0 0 0 0 0 
263 0 0 0 0 0 0 0 0 0 0 0 0 0 0 0 
299 0 0 0 0 0 0 0 0 0 0 0 0 0 0 0 
335 0 0 0 0 0 0 0 0 0 0 0 0 0 0 0 
371 0 0 0 0 0 0 0 0 0 0 0 0 0 0 0 
407 0 0 0 0 0 0 0 0 0 0 0 0 0 0 0 
443 0 0 0 0 0 0 0 0 0 0 0 0 0 0 0 
479 0 0 0 0 0 0 0 0 0 0 0 0 0 0 0 
515 0 0 0 0 0 0 0 0 0 0 0 0 0 0 0 
551 0 0 0 0 0 0 0 0 0 0 0 0 0 0 0 
587 0 0 0 0 0 0 0 0 0 0 0 0 0 0 0 
623 0 0 0 0 0 0 0 0 0 0 0 0 0 0 0 
12 0 0 0 0 0 0 0 0 0 0 0 0 0 0 0 
48 0 0 0 0 0 0 0 0 0 0 0 0 0 0 0 
84 0 0 0 0 0 0 0 0 0 0 0 0 0 0 0 
120 0 0 0 0 0 0 0 0 0 0 0 0 0 0 0 
156 0 0 0 0 0 0 0 0 0 0 0 0 0 0 0 
192 0 0 0 0 0 0 0 0 0 0 0 0 0 0 0 
228 0 0 0 0 0 0 0 0 0 0 0 0 0 0 0 
264 0 0 0 0 0 0 0 0 0 0 0 0 0 0 0 
300 0 0 0 0 0 0 0 0 0 0 0 0 0 0 0 
336 0 0 0 0 0 0 0 0 0 0 0 0 0 0 0 
372 0 0 0 0 0 0 0 0 0 0 0 0 0 0 0 
408 0 0 0 0 0 0 0 0 0 0 0 0 0 0 0 
13 0 0 0 0 0 0 0 0 0 0 0 0 0 0 0 
49 0 0 0 0 0 0 0 0 0 0 0 0 0 0 0 
85 0 0 0 0 0 0 0 0 0 0 0 0 0 0 0 
121 0 0 0 0 0 0 0 0 0 0 0 0 0 0 0 
157 0 0 0 0 0 0 0 0 0 0 0 0 0 0 0 
193 0 0 0 0 0 0 0 0 0 0 0 0 0 0 0 
229 0 0 0 0 0 0 0 0 0 0 0 0 0 0 0 
265 0 0 0 0 0 0 0 0 0 0 0 0 0 0 0 
301 0 0 0 0 0 0 0 0 0 0 0 0 0 0 0 
337 0 0 0 0 0 0 0 0 0 0 0 0 0 0 0 
373 0 0 0 0 0 0 0 0 0 0 0 0 0 0 0 
409 0 0 0 0 0 0 0 0 0 0 0 0 0 0 0 
445 0 0 0 0 0 0 0 0 0 0 0 0 0 0 0 
481 0 0 0 0 0 0 0 0 0 0 0 0 0 0 0 
517 0 0 0 0 0 0 0 0 0 0 0 0 0 0 0 
553 0 0 0 0 0 0 0 0 0 0 0 0 0 0 0 
589 0 0 0 0 0 0 0 0 0 0 0 0 0 0 0 
625 0 0 0 0 0 0 0 0 0 0 0 0 0 0 0 
444 0 0 0 0 0 0 0 0 0 0 0 0 0 0 0 
480 0 0 0 0 0 0 0 0 0 0 0 0 0 0 0 
516 0 0 0 0 0 0 0 0 0 0 0 0 0 0 0 
552 0 0 0 0 0 0 0 0 0 0 0 0 0 0 0 
588 0 0 0 0 0 0 0 0 0 0 0 0 0 0 0 
624 0 0 0 0 0 0 0 0 0 0 0 0 0 0 0 
14 0 0 0 0 0 0 0 0 0 0 0 0 0 0 0 
50 0 0 0 0 0 0 0 0 0 0 0 0 0 0 0 
86 0 0 0 0 0 0 0 0 0 0 0 0 0 0 0 
122 0 0 0 0 0 0 0 0 0 0 0 0 0 0 0 
158 0 0 0 0 0 0 0 0 0 0 0 0 0 0 0 
194 0 0 0 0 0 0 0 0 0 0 0 0 0 0 0 
230 0 0 0 0 0 0 0 0 0 0 0 0 0 0 0 
266 0 0 0 0 0 0 0 0 0 0 0 0 0 0 0 
302 0 0 0 0 0 0 0 0 0 0 0 0 0 0 0 
338 0 0 0 0 0 0 0 0 0 0 0 0 0 0 0 
374 0 0 0 0 0 0 0 0 0 0 0 0 0 0 0 
410 0 0 0 0 0 0 0 0 0 0 0 0 0 0 0 
446 0 0 0 0 0 0 0 0 0 0 0 0 0 0 0 
482 0 0 0 0 0 0 0 0 0 0 0 0 0 0 0 
518 0 0 0 0 0 0 0 0 0 0 0 0 0 0 0 
554 0 0 0 0 0 0 0 0 0 0 0 0 0 0 0 
590 0 0 0 0 0 0 0 0 0 0 0 0 0 0 0 
626 0 0 0 0 0 0 0 0 0 0 0 0 0 0 0 
15 0 0 0 0 0 0 0 0 0 0 0 0 0 0 0 
51 0 0 0 0 0 0 0 0 0 0 0 0 0 0 0 
87 0 0 0 0 0 0 0 0 0 0 0 0 0 0 0 
123 0 0 0 0 0 0 0 0 0 0 0 0 0 0 0 
159 0 0 0 0 0 0 0 0 0 0 0 0 0 0 0 
195 0 0 0 0 0 0 0 0 0 0 0 0 0 0 0 
231 0 0 0 0 0 0 0 0 0 0 0 0 0 0 0 
267 0 0 0 0 0 0 0 0 0 0 0 0 0 0 0 
303 0 0 0 0 0 0 0 0 0 0 0 0 0 0 0 
339 0 0 0 0 0 0 0 0 0 0 0 0 0 0 0 
375 0 0 0 0 0 0 0 0 0 0 0 0 0 0 0 
411 0 0 0 0 0 0 0 0 0 0 0 0 0 0 0 
447 0 0 0 0 0 0 0 0 0 0 0 0 0 0 0 
483 0 0 0 0 0 0 0 0 0 0 0 0 0 0 0 
519 0 0 0 0 0 0 0 0 0 0 0 0 0 0 0 
555 0 0 0 0 0 0 0 0 0 0 0 0 0 0 0 
591 0 0 0 0 0 0 0 0 0 0 0 0 0 0 0 
627 0 0 0 0 0 0 0 0 0 0 0 0 0 0 0 
16 0 0 0 0 0 0 0 0 0 0 0 0 0 0 0 
52 0 0 0 0 0 0 0 0 0 0 0 0 0 0 0 
88 0 0 0 0 0 0 0 0 0 0 0 0 0 0 0 
124 0 0 0 0 0 0 0 0 0 0 0 0 0 0 0 
160 0 0 0 0 0 0 0 0 0 0 0 0 0 0 0 
196 0 0 0 0 0 0 0 0 0 0 0 0 0 0 0 
232 0 0 0 0 0 0 0 0 0 0 0 0 0 0 0 
268 0 0 0 0 0 0 0 0 0 0 0 0 0 0 0 
304 0 0 0 0 0 0 0 0 0 0 0 0 0 0 0 
340 0 0 0 0 0 0 0 0 0 0 0 0 0 0 0 
376 0 0 0 0 0 0 0 0 0 0 0 0 0 0 0 
412 0 0 0 0 0 0 0 0 0 0 0 0 0 0 0 
448 0 0 0 0 0 0 0 0 0 0 0 0 0 0 0 
484 0 0 0 0 0 0 0 0 0 0 0 0 0 0 0 
520 0 0 0 0 0 0 0 0 0 0 0 0 0 0 0 
556 0 0 0 0 0 0 0 0 0 0 0 0 0 0 0 
592 0 0 0 0 0 0 0 0 0 0 0 0 0 0 0 
628 0 0 0 0 0 0 0 0 0 0 0 0 0 0 0 
1041 0 0 0 0 0 0 0 0 0 0 0 0 0 0 0 
3089 0 0 0 0 0 0 0 0 0 0 0 0 0 0 0 
1077 0 0 0 0 0 0 0 0 0 0 0 0 0 0 0 
3125 0 0 0 0 0 0 0 0 0 0 0 0 0 0 0 
1113 0 0 0 0 0 0 0 0 0 0 0 0 0 0 0 
3161 0 0 0 0 0 0 0 0 0 0 0 0 0 0 0 
1149 0 0 0 0 0 0 0 0 0 0 0 0 0 0 0 
3197 0 0 0 0 0 0 0 0 0 0 0 0 0 0 0 
234 1 0 0 0 0 0 0 0 0 0 0 0 0 0 0 
270 1 0 0 0 0 0 0 0 0 0 0 0 0 0 0 
306 1 0 0 0 0 0 0 0 0 0 0 0 0 0 0 
342 1 0 0 0 0 0 0 0 0 0 0 0 0 0 0 
378 1 0 0 0 0 0 0 0 0 0 0 0 0 0 0 
414 1 0 0 0 0 0 0 0 0 0 0 0 0 0 0 
450 1 0 0 0 0 0 0 0 0 0 0 0 0 0 0 
486 1 0 0 0 0 0 0 0 0 0 0 0 0 0 0 
522 1 0 0 0 0 0 0 0 0 0 0 0 0 0 0 
558 1 0 0 0 0 0 0 0 0 0 0 0 0 0 0 
594 1 0 0 0 0 0 0 0 0 0 0 0 0 0 0 
630 1 0 0 0 0 0 0 0 0 0 0 0 0 0 0 
161 1 0 0 0 0 0 0 0 0 0 0 0 0 0 0 
197 1 0 0 0 0 0 0 0 0 0 0 0 0 0 0 
233 1 0 0 0 0 0 0 0 0 0 0 0 0 0 0 
269 1 0 0 0 0 0 0 0 0 0 0 0 0 0 0 
305 1 0 0 0 0 0 0 0 0 0 0 0 0 0 0 
341 1 0 0 0 0 0 0 0 0 0 0 0 0 0 0 
377 1 0 0 0 0 0 0 0 0 0 0 0 0 0 0 
413 1 0 0 0 0 0 0 0 0 0 0 0 0 0 0 
449 1 0 0 0 0 0 0 0 0 0 0 0 0 0 0 
485 1 0 0 0 0 0 0 0 0 0 0 0 0 0 0 
521 1 0 0 0 0 0 0 0 0 0 0 0 0 0 0 
557 1 0 0 0 0 0 0 0 0 0 0 0 0 0 0 
593 1 0 0 0 0 0 0 0 0 0 0 0 0 0 0 
629 1 0 0 0 0 0 0 0 0 0 0 0 0 0 0 
3198 1 0 0 0 0 0 0 0 0 0 0 0 0 0 0 
1186 1 0 0 0 0 0 0 0 0 0 0 0 0 0 0 
3234 1 0 0 0 0 0 0 0 0 0 0 0 0 0 0 
4258 1 0 0 0 0 0 0 0 0 0 0 0 0 0 0 
1222 1 0 0 0 0 0 0 0 0 0 0 0 0 0 0 
2246 1 0 0 0 0 0 0 0 0 0 0 0 0 0 0 
3270 1 0 0 0 0 0 0 0 0 0 0 0 0 0 0 
4294 1 0 0 0 0 0 0 0 0 0 0 0 0 0 0 
2137 1 0 0 0 0 0 0 0 0 0 0 0 0 0 0 
4185 1 0 0 0 0 0 0 0 0 0 0 0 0 0 0 
2173 1 0 0 0 0 0 0 0 0 0 0 0 0 0 0 
4221 1 0 0 0 0 0 0 0 0 0 0 0 0 0 0 
9270 1 0 0 0 0 0 0 0 0 0 0 0 0 0 0 
25654 1 0 0 0 0 0 0 0 0 0 0 0 0 0 0 
11318 1 0 0 0 0 0 0 0 0 0 0 0 0 0 0 
27702 1 0 0 0 0 0 0 0 0 0 0 0 0 0 0 
9306 1 0 0 0 0 0 0 0 0 0 0 0 0 0 0 
25690 1 0 0 0 0 0 0 0 0 0 0 0 0 0 0 
33882 1 0 0 0 0 0 0 0 0 0 0 0 0 0 0 
11354 1 0 0 0 0 0 0 0 0 0 0 0 0 0 0 
19546 1 0 0 0 0 0 0 0 0 0 0 0 0 0 0 
27738 1 0 0 0 0 0 0 0 0 0 0 0 0 0 0 
35930 1 0 0 0 0 0 0 0 0 0 0 0 0 0 0 
9342 1 0 0 0 0 0 0 0 0 0 0 0 0 0 0 
17534 1 0 0 0 0 0 0 0 0 0 0 0 0 0 0 
25726 1 0 0 0 0 0 0 0 0 0 0 0 0 0 0 
33918 1 0 0 0 0 0 0 0 0 0 0 0 0 0 0 
10366 1 0 0 0 0 0 0 0 0 0 0 0 0 0 0 
26750 1 0 0 0 0 0 0 0 0 0 0 0 0 0 0 
12414 1 0 0 0 0 0 0 0 0 0 0 0 0 0 0 
28798 1 0 0 0 0 0 0 0 0 0 0 0 0 0 0 
10402 1 0 0 0 0 0 0 0 0 0 0 0 0 0 0 
26786 1 0 0 0 0 0 0 0 0 0 0 0 0 0 0 
10257 1 0 0 0 0 0 0 0 0 0 0 0 0 0 0 
18449 1 0 0 0 0 0 0 0 0 0 0 0 0 0 0 
26641 1 0 0 0 0 0 0 0 0 0 0 0 0 0 0 
34833 1 0 0 0 0 0 0 0 0 0 0 0 0 0 0 
12305 1 0 0 0 0 0 0 0 0 0 0 0 0 0 0 
20497 1 0 0 0 0 0 0 0 0 0 0 0 0 0 0 
28689 1 0 0 0 0 0 0 0 0 0 0 0 0 0 0 
36881 1 0 0 0 0 0 0 0 0 0 0 0 0 0 0 
10293 1 0 0 0 0 0 0 0 0 0 0 0 0 0 0 
18485 1 0 0 0 0 0 0 0 0 0 0 0 0 0 0 
26677 1 0 0 0 0 0 0 0 0 0 0 0 0 0 0 
34869 1 0 0 0 0 0 0 0 0 0 0 0 0 0 0 
12341 1 0 0 0 0 0 0 0 0 0 0 0 0 0 0 
20533 1 0 0 0 0 0 0 0 0 0 0 0 0 0 0 
28725 1 0 0 0 0 0 0 0 0 0 0 0 0 0 0 
36917 1 0 0 0 0 0 0 0 0 0 0 0 0 0 0 
9234 1 0 0 0 0 0 0 0 0 0 0 0 0 0 0 
25618 1 0 0 0 0 0 0 0 0 0 0 0 0 0 0 
11282 1 0 0 0 0 0 0 0 0 0 0 0 0 0 0 
27666 1 0 0 0 0 0 0 0 0 0 0 0 0 0 0 
82998 1 0 0 0 0 0 0 0 0 0 0 0 0 0 0 
148534 1 0 0 0 0 0 0 0 0 0 0 0 0 0 0 
214070 1 0 0 0 0 0 0 0 0 0 0 0 0 0 0 
279606 1 0 0 0 0 0 0 0 0 0 0 0 0 0 0 
99382 1 0 0 0 0 0 0 0 0 0 0 0 0 0 0 
164918 1 0 0 0 0 0 0 0 0 0 0 0 0 0 0 
230454 1 0 0 0 0 0 0 0 0 0 0 0 0 0 0 
295990 1 0 0 0 0 0 0 0 0 0 0 0 0 0 0 
85046 1 0 0 0 0 0 0 0 0 0 0 0 0 0 0 
150582 1 0 0 0 0 0 0 0 0 0 0 0 0 0 0 
216118 1 0 0 0 0 0 0 0 0 0 0 0 0 0 0 
281654 1 0 0 0 0 0 0 0 0 0 0 0 0 0 0 
101430 1 0 0 0 0 0 0 0 0 0 0 0 0 0 0 
166966 1 0 0 0 0 0 0 0 0 0 0 0 0 0 0 
232502 1 0 0 0 0 0 0 0 0 0 0 0 0 0 0 
298038 1 0 0 0 0 0 0 0 0 0 0 0 0 0 0 
83034 1 0 0 0 0 0 0 0 0 0 0 0 0 0 0 
148570 1 0 0 0 0 0 0 0 0 0 0 0 0 0 0 
214106 1 0 0 0 0 0 0 0 0 0 0 0 0 0 0 
279642 1 0 0 0 0 0 0 0 0 0 0 0 0 0 0 
77914 1 0 0 0 0 0 0 0 0 0 0 0 0 0 0 
143450 1 0 0 0 0 0 0 0 0 0 0 0 0 0 0 
208986 1 0 0 0 0 0 0 0 0 0 0 0 0 0 0 
274522 1 0 0 0 0 0 0 0 0 0 0 0 0 0 0 
94298 1 0 0 0 0 0 0 0 0 0 0 0 0 0 0 
159834 1 0 0 0 0 0 0 0 0 0 0 0 0 0 0 
225370 1 0 0 0 0 0 0 0 0 0 0 0 0 0 0 
290906 1 0 0 0 0 0 0 0 0 0 0 0 0 0 0 
82962 1 0 0 0 0 0 0 0 0 0 0 0 0 0 0 
148498 1 0 0 0 0 0 0 0 0 0 0 0 0 0 0 
214034 1 0 0 0 0 0 0 0 0 0 0 0 0 0 0 
279570 1 0 0 0 0 0 0 0 0 0 0 0 0 0 0 
99346 1 0 0 0 0 0 0 0 0 0 0 0 0 0 0 
164882 1 0 0 0 0 0 0 0 0 0 0 0 0 0 0 
230418 1 0 0 0 0 0 0 0 0 0 0 0 0 0 0 
295954 1 0 0 0 0 0 0 0 0 0 0 0 0 0 0 
75794 1 0 0 0 0 0 0 0 0 0 0 0 0 0 0 
141330 1 0 0 0 0 0 0 0 0 0 0 0 0 0 0 
206866 1 0 0 0 0 0 0 0 0 0 0 0 0 0 0 
272402 1 0 0 0 0 0 0 0 0 0 0 0 0 0 0 
92178 1 0 0 0 0 0 0 0 0 0 0 0 0 0 0 
157714 1 0 0 0 0 0 0 0 0 0 0 0 0 0 0 
223250 1 0 0 0 0 0 0 0 0 0 0 0 0 0 0 
288786 1 0 0 0 0 0 0 0 0 0 0 0 0 0 0 
85010 1 0 0 0 0 0 0 0 0 0 0 0 0 0 0 
150546 1 0 0 0 0 0 0 0 0 0 0 0 0 0 0 
216082 1 0 0 0 0 0 0 0 0 0 0 0 0 0 0 
281618 1 0 0 0 0 0 0 0 0 0 0 0 0 0 0 
101394 1 0 0 0 0 0 0 0 0 0 0 0 0 0 0 
166930 1 0 0 0 0 0 0 0 0 0 0 0 0 0 0 
232466 1 0 0 0 0 0 0 0 0 0 0 0 0 0 0 
298002 1 0 0 0 0 0 0 0 0 0 0 0 0 0 0 
77842 1 0 0 0 0 0 0 0 0 0 0 0 0 0 0 
143378 1 0 0 0 0 0 0 0 0 0 0 0 0 0 0 
208914 1 0 0 0 0 0 0 0 0 0 0 0 0 0 0 
274450 1 0 0 0 0 0 0 0 0 0 0 0 0 0 0 
86034 1 0 0 0 0 0 0 0 0 0 0 0 0 0 0 
151570 1 0 0 0 0 0 0 0 0 0 0 0 0 0 0 
217106 1 0 0 0 0 0 0 0 0 0 0 0 0 0 0 
282642 1 0 0 0 0 0 0 0 0 0 0 0 0 0 0 
94226 1 0 0 0 0 0 0 0 0 0 0 0 0 0 0 
159762 1 0 0 0 0 0 0 0 0 0 0 0 0 0 0 
225298 1 0 0 0 0 0 0 0 0 0 0 0 0 0 0 
290834 1 0 0 0 0 0 0 0 0 0 0 0 0 0 0 
102418 1 0 0 0 0 0 0 0 0 0 0 0 0 0 0 
167954 1 0 0 0 0 0 0 0 0 0 0 0 0 0 0 
233490 1 0 0 0 0 0 0 0 0 0 0 0 0 0 0 
299026 1 0 0 0 0 0 0 0 0 0 0 0 0 0 0 
75830 1 0 0 0 0 0 0 0 0 0 0 0 0 0 0 
141366 1 0 0 0 0 0 0 0 0 0 0 0 0 0 0 
206902 1 0 0 0 0 0 0 0 0 0 0 0 0 0 0 
272438 1 0 0 0 0 0 0 0 0 0 0 0 0 0 0 
84022 1 0 0 0 0 0 0 0 0 0 0 0 0 0 0 
149558 1 0 0 0 0 0 0 0 0 0 0 0 0 0 0 
215094 1 0 0 0 0 0 0 0 0 0 0 0 0 0 0 
280630 1 0 0 0 0 0 0 0 0 0 0 0 0 0 0 
92214 1 0 0 0 0 0 0 0 0 0 0 0 0 0 0 
157750 1 0 0 0 0 0 0 0 0 0 0 0 0 0 0 
223286 1 0 0 0 0 0 0 0 0 0 0 0 0 0 0 
288822 1 0 0 0 0 0 0 0 0 0 0 0 0 0 0 
100406 1 0 0 0 0 0 0 0 0 0 0 0 0 0 0 
165942 1 0 0 0 0 0 0 0 0 0 0 0 0 0 0 
231478 1 0 0 0 0 0 0 0 0 0 0 0 0 0 0 
297014 1 0 0 0 0 0 0 0 0 0 0 0 0 0 0 
77878 1 0 0 0 0 0 0 0 0 0 0 0 0 0 0 
143414 1 0 0 0 0 0 0 0 0 0 0 0 0 0 0 
208950 1 0 0 0 0 0 0 0 0 0 0 0 0 0 0 
274486 1 0 0 0 0 0 0 0 0 0 0 0 0 0 0 
86070 1 0 0 0 0 0 0 0 0 0 0 0 0 0 0 
151606 1 0 0 0 0 0 0 0 0 0 0 0 0 0 0 
217142 1 0 0 0 0 0 0 0 0 0 0 0 0 0 0 
282678 1 0 0 0 0 0 0 0 0 0 0 0 0 0 0 
94262 1 0 0 0 0 0 0 0 0 0 0 0 0 0 0 
159798 1 0 0 0 0 0 0 0 0 0 0 0 0 0 0 
225334 1 0 0 0 0 0 0 0 0 0 0 0 0 0 0 
290870 1 0 0 0 0 0 0 0 0 0 0 0 0 0 0 
102454 1 0 0 0 0 0 0 0 0 0 0 0 0 0 0 
167990 1 0 0 0 0 0 0 0 0 0 0 0 0 0 0 
233526 1 0 0 0 0 0 0 0 0 0 0 0 0 0 0 
299062 1 0 0 0 0 0 0 0 0 0 0 0 0 0 0 
75866 1 0 0 0 0 0 0 0 0 0 0 0 0 0 0 
141402 1 0 0 0 0 0 0 0 0 0 0 0 0 0 0 
206938 1 0 0 0 0 0 0 0 0 0 0 0 0 0 0 
272474 1 0 0 0 0 0 0 0 0 0 0 0 0 0 0 
84058 1 0 0 0 0 0 0 0 0 0 0 0 0 0 0 
149594 1 0 0 0 0 0 0 0 0 0 0 0 0 0 0 
215130 1 0 0 0 0 0 0 0 0 0 0 0 0 0 0 
280666 1 0 0 0 0 0 0 0 0 0 0 0 0 0 0 
92250 1 0 0 0 0 0 0 0 0 0 0 0 0 0 0 
157786 1 0 0 0 0 0 0 0 0 0 0 0 0 0 0 
223322 1 0 0 0 0 0 0 0 0 0 0 0 0 0 0 
288858 1 0 0 0 0 0 0 0 0 0 0 0 0 0 0 
100442 1 0 0 0 0 0 0 0 0 0 0 0 0 0 0 
165978 1 0 0 0 0 0 0 0 0 0 0 0 0 0 0 
231514 1 0 0 0 0 0 0 0 0 0 0 0 0 0 0 
297050 1 0 0 0 0 0 0 0 0 0 0 0 0 0 0 
235 2 0 0 0 0 0 0 0 0 0 0 0 0 0 0 
271 2 0 0 0 0 0 0 0 0 0 0 0 0 0 0 
307 2 0 0 0 0 0 0 0 0 0 0 0 0 0 0 
343 2 0 0 0 0 0 0 0 0 0 0 0 0 0 0 
379 2 0 0 0 0 0 0 0 0 0 0 0 0 0 0 
415 2 0 0 0 0 0 0 0 0 0 0 0 0 0 0 
451 2 0 0 0 0 0 0 0 0 0 0 0 0 0 0 
487 2 0 0 0 0 0 0 0 0 0 0 0 0 0 0 
523 2 0 0 0 0 0 0 0 0 0 0 0 0 0 0 
559 2 0 0 0 0 0 0 0 0 0 0 0 0 0 0 
595 2 0 0 0 0 0 0 0 0 0 0 0 0 0 0 
631 2 0 0 0 0 0 0 0 0 0 0 0 0 0 0 
2067 2 0 0 0 0 0 0 0 0 0 0 0 0 0 0 
4115 2 0 0 0 0 0 0 0 0 0 0 0 0 0 0 
2103 2 0 0 0 0 0 0 0 0 0 0 0 0 0 0 
4151 2 0 0 0 0 0 0 0 0 0 0 0 0 0 0 
2139 2 0 0 0 0 0 0 0 0 0 0 0 0 0 0 
4187 2 0 0 0 0 0 0 0 0 0 0 0 0 0 0 
1223 2 0 0 0 0 0 0 0 0 0 0 0 0 0 0 
3271 2 0 0 0 0 0 0 0 0 0 0 0 0 0 0 
4295 2 0 0 0 0 0 0 0 0 0 0 0 0 0 0 
1188 2 0 0 0 0 0 0 0 0 0 0 0 0 0 0 
1188 2 0 0 0 0 0 0 0 0 0 0 0 0 0 0 
3272 2 0 0 0 0 0 0 0 0 0 0 0 0 0 0 
17427 2 0 0 0 0 0 0 0 0 0 0 0 0 0 0 
33811 2 0 0 0 0 0 0 0 0 0 0 0 0 0 0 
19475 2 0 0 0 0 0 0 0 0 0 0 0 0 0 0 
35859 2 0 0 0 0 0 0 0 0 0 0 0 0 0 0 
17463 2 0 0 0 0 0 0 0 0 0 0 0 0 0 0 
33847 2 0 0 0 0 0 0 0 0 0 0 0 0 0 0 
19511 2 0 0 0 0 0 0 0 0 0 0 0 0 0 0 
35895 2 0 0 0 0 0 0 0 0 0 0 0 0 0 0 
17499 2 0 0 0 0 0 0 0 0 0 0 0 0 0 0 
10367 2 0 0 0 0 0 0 0 0 0 0 0 0 0 0 
18559 2 0 0 0 0 0 0 0 0 0 0 0 0 0 0 
34943 2 0 0 0 0 0 0 0 0 0 0 0 0 0 0 
20607 2 0 0 0 0 0 0 0 0 0 0 0 0 0 0 
25763 2 0 0 0 0 0 0 0 0 0 0 0 0 0 0 
11427 2 0 0 0 0 0 0 0 0 0 0 0 0 0 0 
19619 2 0 0 0 0 0 0 0 0 0 0 0 0 0 0 
27811 2 0 0 0 0 0 0 0 0 0 0 0 0 0 0 
36003 2 0 0 0 0 0 0 0 0 0 0 0 0 0 0 
28835 2 0 0 0 0 0 0 0 0 0 0 0 0 0 0 
37027 2 0 0 0 0 0 0 0 0 0 0 0 0 0 0 
10439 2 0 0 0 0 0 0 0 0 0 0 0 0 0 0 
18631 2 0 0 0 0 0 0 0 0 0 0 0 0 0 0 
26823 2 0 0 0 0 0 0 0 0 0 0 0 0 0 0 
35015 2 0 0 0 0 0 0 0 0 0 0 0 0 0 0 
27812 2 0 0 0 0 0 0 0 0 0 0 0 0 0 0 
9416 2 0 0 0 0 0 0 0 0 0 0 0 0 0 0 
25800 2 0 0 0 0 0 0 0 0 0 0 0 0 0 0 
36990 2 0 0 0 0 0 0 0 0 0 0 0 0 0 0 
18594 2 0 0 0 0 0 0 0 0 0 0 0 0 0 0 
34978 2 0 0 0 0 0 0 0 0 0 0 0 0 0 0 
74771 2 0 0 0 0 0 0 0 0 0 0 0 0 0 0 
140307 2 0 0 0 0 0 0 0 0 0 0 0 0 0 0 
205843 2 0 0 0 0 0 0 0 0 0 0 0 0 0 0 
271379 2 0 0 0 0 0 0 0 0 0 0 0 0 0 0 
91155 2 0 0 0 0 0 0 0 0 0 0 0 0 0 0 
156691 2 0 0 0 0 0 0 0 0 0 0 0 0 0 0 
222227 2 0 0 0 0 0 0 0 0 0 0 0 0 0 0 
287763 2 0 0 0 0 0 0 0 0 0 0 0 0 0 0 
76819 2 0 0 0 0 0 0 0 0 0 0 0 0 0 0 
142355 2 0 0 0 0 0 0 0 0 0 0 0 0 0 0 
207891 2 0 0 0 0 0 0 0 0 0 0 0 0 0 0 
273427 2 0 0 0 0 0 0 0 0 0 0 0 0 0 0 
93203 2 0 0 0 0 0 0 0 0 0 0 0 0 0 0 
158739 2 0 0 0 0 0 0 0 0 0 0 0 0 0 0 
224275 2 0 0 0 0 0 0 0 0 0 0 0 0 0 0 
289811 2 0 0 0 0 0 0 0 0 0 0 0 0 0 0 
74807 2 0 0 0 0 0 0 0 0 0 0 0 0 0 0 
140343 2 0 0 0 0 0 0 0 0 0 0 0 0 0 0 
205879 2 0 0 0 0 0 0 0 0 0 0 0 0 0 0 
271415 2 0 0 0 0 0 0 0 0 0 0 0 0 0 0 
91191 2 0 0 0 0 0 0 0 0 0 0 0 0 0 0 
156727 2 0 0 0 0 0 0 0 0 0 0 0 0 0 0 
222263 2 0 0 0 0 0 0 0 0 0 0 0 0 0 0 
287799 2 0 0 0 0 0 0 0 0 0 0 0 0 0 0 
76855 2 0 0 0 0 0 0 0 0 0 0 0 0 0 0 
142391 2 0 0 0 0 0 0 0 0 0 0 0 0 0 0 
207927 2 0 0 0 0 0 0 0 0 0 0 0 0 0 0 
273463 2 0 0 0 0 0 0 0 0 0 0 0 0 0 0 
93239 2 0 0 0 0 0 0 0 0 0 0 0 0 0 0 
158775 2 0 0 0 0 0 0 0 0 0 0 0 0 0 0 
224311 2 0 0 0 0 0 0 0 0 0 0 0 0 0 0 
289847 2 0 0 0 0 0 0 0 0 0 0 0 0 0 0 
74843 2 0 0 0 0 0 0 0 0 0 0 0 0 0 0 
140379 2 0 0 0 0 0 0 0 0 0 0 0 0 0 0 
205915 2 0 0 0 0 0 0 0 0 0 0 0 0 0 0 
271451 2 0 0 0 0 0 0 0 0 0 0 0 0 0 0 
91227 2 0 0 0 0 0 0 0 0 0 0 0 0 0 0 
156763 2 0 0 0 0 0 0 0 0 0 0 0 0 0 0 
222299 2 0 0 0 0 0 0 0 0 0 0 0 0 0 0 
287835 2 0 0 0 0 0 0 0 0 0 0 0 0 0 0 
99419 2 0 0 0 0 0 0 0 0 0 0 0 0 0 0 
164955 2 0 0 0 0 0 0 0 0 0 0 0 0 0 0 
230491 2 0 0 0 0 0 0 0 0 0 0 0 0 0 0 
296027 2 0 0 0 0 0 0 0 0 0 0 0 0 0 0 
76891 2 0 0 0 0 0 0 0 0 0 0 0 0 0 0 
142427 2 0 0 0 0 0 0 0 0 0 0 0 0 0 0 
207963 2 0 0 0 0 0 0 0 0 0 0 0 0 0 0 
273499 2 0 0 0 0 0 0 0 0 0 0 0 0 0 0 
85083 2 0 0 0 0 0 0 0 0 0 0 0 0 0 0 
150619 2 0 0 0 0 0 0 0 0 0 0 0 0 0 0 
216155 2 0 0 0 0 0 0 0 0 0 0 0 0 0 0 
281691 2 0 0 0 0 0 0 0 0 0 0 0 0 0 0 
93275 2 0 0 0 0 0 0 0 0 0 0 0 0 0 0 
158811 2 0 0 0 0 0 0 0 0 0 0 0 0 0 0 
224347 2 0 0 0 0 0 0 0 0 0 0 0 0 0 0 
289883 2 0 0 0 0 0 0 0 0 0 0 0 0 0 0 
101467 2 0 0 0 0 0 0 0 0 0 0 0 0 0 0 
167003 2 0 0 0 0 0 0 0 0 0 0 0 0 0 0 
232539 2 0 0 0 0 0 0 0 0 0 0 0 0 0 0 
298075 2 0 0 0 0 0 0 0 0 0 0 0 0 0 0 
74879 2 0 0 0 0 0 0 0 0 0 0 0 0 0 0 
140415 2 0 0 0 0 0 0 0 0 0 0 0 0 0 0 
205951 2 0 0 0 0 0 0 0 0 0 0 0 0 0 0 
271487 2 0 0 0 0 0 0 0 0 0 0 0 0 0 0 
83071 2 0 0 0 0 0 0 0 0 0 0 0 0 0 0 
148607 2 0 0 0 0 0 0 0 0 0 0 0 0 0 0 
214143 2 0 0 0 0 0 0 0 0 0 0 0 0 0 0 
279679 2 0 0 0 0 0 0 0 0 0 0 0 0 0 0 
91263 2 0 0 0 0 0 0 0 0 0 0 0 0 0 0 
156799 2 0 0 0 0 0 0 0 0 0 0 0 0 0 0 
222335 2 0 0 0 0 0 0 0 0 0 0 0 0 0 0 
287871 2 0 0 0 0 0 0 0 0 0 0 0 0 0 0 
99455 2 0 0 0 0 0 0 0 0 0 0 0 0 0 0 
164991 2 0 0 0 0 0 0 0 0 0 0 0 0 0 0 
230527 2 0 0 0 0 0 0 0 0 0 0 0 0 0 0 
296063 2 0 0 0 0 0 0 0 0 0 0 0 0 0 0 
92287 2 0 0 0 0 0 0 0 0 0 0 0 0 0 0 
157823 2 0 0 0 0 0 0 0 0 0 0 0 0 0 0 
223359 2 0 0 0 0 0 0 0 0 0 0 0 0 0 0 
288895 2 0 0 0 0 0 0 0 0 0 0 0 0 0 0 
76927 2 0 0 0 0 0 0 0 0 0 0 0 0 0 0 
142463 2 0 0 0 0 0 0 0 0 0 0 0 0 0 0 
207999 2 0 0 0 0 0 0 0 0 0 0 0 0 0 0 
273535 2 0 0 0 0 0 0 0 0 0 0 0 0 0 0 
85119 2 0 0 0 0 0 0 0 0 0 0 0 0 0 0 
150655 2 0 0 0 0 0 0 0 0 0 0 0 0 0 0 
216191 2 0 0 0 0 0 0 0 0 0 0 0 0 0 0 
281727 2 0 0 0 0 0 0 0 0 0 0 0 0 0 0 
93311 2 0 0 0 0 0 0 0 0 0 0 0 0 0 0 
158847 2 0 0 0 0 0 0 0 0 0 0 0 0 0 0 
224383 2 0 0 0 0 0 0 0 0 0 0 0 0 0 0 
289919 2 0 0 0 0 0 0 0 0 0 0 0 0 0 0 
101503 2 0 0 0 0 0 0 0 0 0 0 0 0 0 0 
167039 2 0 0 0 0 0 0 0 0 0 0 0 0 0 0 
232575 2 0 0 0 0 0 0 0 0 0 0 0 0 0 0 
298111 2 0 0 0 0 0 0 0 0 0 0 0 0 0 0 
77951 2 0 0 0 0 0 0 0 0 0 0 0 0 0 0 
143487 2 0 0 0 0 0 0 0 0 0 0 0 0 0 0 
209023 2 0 0 0 0 0 0 0 0 0 0 0 0 0 0 
274559 2 0 0 0 0 0 0 0 0 0 0 0 0 0 0 
94335 2 0 0 0 0 0 0 0 0 0 0 0 0 0 0 
159871 2 0 0 0 0 0 0 0 0 0 0 0 0 0 0 
225407 2 0 0 0 0 0 0 0 0 0 0 0 0 0 0 
290943 2 0 0 0 0 0 0 0 0 0 0 0 0 0 0 
102527 2 0 0 0 0 0 0 0 0 0 0 0 0 0 0 
168063 2 0 0 0 0 0 0 0 0 0 0 0 0 0 0 
233599 2 0 0 0 0 0 0 0 0 0 0 0 0 0 0 
299135 2 0 0 0 0 0 0 0 0 0 0 0 0 0 0 
74915 2 0 0 0 0 0 0 0 0 0 0 0 0 0 0 
140451 2 0 0 0 0 0 0 0 0 0 0 0 0 0 0 
205987 2 0 0 0 0 0 0 0 0 0 0 0 0 0 0 
271523 2 0 0 0 0 0 0 0 0 0 0 0 0 0 0 
83107 2 0 0 0 0 0 0 0 0 0 0 0 0 0 0 
148643 2 0 0 0 0 0 0 0 0 0 0 0 0 0 0 
214179 2 0 0 0 0 0 0 0 0 0 0 0 0 0 0 
279715 2 0 0 0 0 0 0 0 0 0 0 0 0 0 0 
99491 2 0 0 0 0 0 0 0 0 0 0 0 0 0 0 
165027 2 0 0 0 0 0 0 0 0 0 0 0 0 0 0 
230563 2 0 0 0 0 0 0 0 0 0 0 0 0 0 0 
296099 2 0 0 0 0 0 0 0 0 0 0 0 0 0 0 
75939 2 0 0 0 0 0 0 0 0 0 0 0 0 0 0 
141475 2 0 0 0 0 0 0 0 0 0 0 0 0 0 0 
207011 2 0 0 0 0 0 0 0 0 0 0 0 0 0 0 
272547 2 0 0 0 0 0 0 0 0 0 0 0 0 0 0 
84131 2 0 0 0 0 0 0 0 0 0 0 0 0 0 0 
149667 2 0 0 0 0 0 0 0 0 0 0 0 0 0 0 
215203 2 0 0 0 0 0 0 0 0 0 0 0 0 0 0 
280739 2 0 0 0 0 0 0 0 0 0 0 0 0 0 0 
92323 2 0 0 0 0 0 0 0 0 0 0 0 0 0 0 
157859 2 0 0 0 0 0 0 0 0 0 0 0 0 0 0 
223395 2 0 0 0 0 0 0 0 0 0 0 0 0 0 0 
288931 2 0 0 0 0 0 0 0 0 0 0 0 0 0 0 
100515 2 0 0 0 0 0 0 0 0 0 0 0 0 0 0 
166051 2 0 0 0 0 0 0 0 0 0 0 0 0 0 0 
231587 2 0 0 0 0 0 0 0 0 0 0 0 0 0 0 
297123 2 0 0 0 0 0 0 0 0 0 0 0 0 0 0 
77987 2 0 0 0 0 0 0 0 0 0 0 0 0 0 0 
143523 2 0 0 0 0 0 0 0 0 0 0 0 0 0 0 
209059 2 0 0 0 0 0 0 0 0 0 0 0 0 0 0 
274595 2 0 0 0 0 0 0 0 0 0 0 0 0 0 0 
86179 2 0 0 0 0 0 0 0 0 0 0 0 0 0 0 
151715 2 0 0 0 0 0 0 0 0 0 0 0 0 0 0 
217251 2 0 0 0 0 0 0 0 0 0 0 0 0 0 0 
282787 2 0 0 0 0 0 0 0 0 0 0 0 0 0 0 
76964 2 0 0 0 0 0 0 0 0 0 0 0 0 0 0 
142500 2 0 0 0 0 0 0 0 0 0 0 0 0 0 0 
208036 2 0 0 0 0 0 0 0 0 0 0 0 0 0 0 
273572 2 0 0 0 0 0 0 0 0 0 0 0 0 0 0 
86106 2 0 0 0 0 0 0 0 0 0 0 0 0 0 0 
151642 2 0 0 0 0 0 0 0 0 0 0 0 0 0 0 
217178 2 0 0 0 0 0 0 0 0 0 0 0 0 0 0 
282714 2 0 0 0 0 0 0 0 0 0 0 0 0 0 0 
102490 2 0 0 0 0 0 0 0 0 0 0 0 0 0 0 
168026 2 0 0 0 0 0 0 0 0 0 0 0 0 0 0 
233562 2 0 0 0 0 0 0 0 0 0 0 0 0 0 0 
299098 2 0 0 0 0 0 0 0 0 0 0 0 0 0 0 
84094 2 0 0 0 0 0 0 0 0 0 0 0 0 0 0 
149630 2 0 0 0 0 0 0 0 0 0 0 0 0 0 0 
215166 2 0 0 0 0 0 0 0 0 0 0 0 0 0 0 
280702 2 0 0 0 0 0 0 0 0 0 0 0 0 0 0 
100478 2 0 0 0 0 0 0 0 0 0 0 0 0 0 0 
166014 2 0 0 0 0 0 0 0 0 0 0 0 0 0 0 
231550 2 0 0 0 0 0 0 0 0 0 0 0 0 0 0 
297086 2 0 0 0 0 0 0 0 0 0 0 0 0 0 0 
86142 2 0 0 0 0 0 0 0 0 0 0 0 0 0 0 
151678 2 0 0 0 0 0 0 0 0 0 0 0 0 0 0 
217214 2 0 0 0 0 0 0 0 0 0 0 0 0 0 0 
282750 2 0 0 0 0 0 0 0 0 0 0 0 0 0 0 
83986 2 0 0 0 0 0 0 0 0 0 0 0 0 0 0 
149522 2 0 0 0 0 0 0 0 0 0 0 0 0 0 0 
215058 2 0 0 0 0 0 0 0 0 0 0 0 0 0 0 
280594 2 0 0 0 0 0 0 0 0 0 0 0 0 0 0 
100370 2 0 0 0 0 0 0 0 0 0 0 0 0 0 0 
165906 2 0 0 0 0 0 0 0 0 0 0 0 0 0 0 
231442 2 0 0 0 0 0 0 0 0 0 0 0 0 0 0 
296978 2 0 0 0 0 0 0 0 0 0 0 0 0 0 0 
28 3 0 0 0 0 0 0 0 0 0 0 0 0 0 0 
32 3 0 0 0 0 0 0 0 0 0 0 0 0 0 0 
36 3 0 0 0 0 0 0 0 0 0 0 0 0 0 0 
64 3 0 0 0 0 0 0 0 0 0 0 0 0 0 0 
68 3 0 0 0 0 0 0 0 0 0 0 0 0 0 0 
72 3 0 0 0 0 0 0 0 0 0 0 0 0 0 0 
100 3 0 0 0 0 0 0 0 0 0 0 0 0 0 0 
104 3 0 0 0 0 0 0 0 0 0 0 0 0 0 0 
108 3 0 0 0 0 0 0 0 0 0 0 0 0 0 0 
136 3 0 0 0 0 0 0 0 0 0 0 0 0 0 0 
140 3 0 0 0 0 0 0 0 0 0 0 0 0 0 0 
144 3 0 0 0 0 0 0 0 0 0 0 0 0 0 0 
172 3 0 0 0 0 0 0 0 0 0 0 0 0 0 0 
176 3 0 0 0 0 0 0 0 0 0 0 0 0 0 0 
180 3 0 0 0 0 0 0 0 0 0 0 0 0 0 0 
208 3 0 0 0 0 0 0 0 0 0 0 0 0 0 0 
212 3 0 0 0 0 0 0 0 0 0 0 0 0 0 0 
216 3 0 0 0 0 0 0 0 0 0 0 0 0 0 0 
244 3 0 0 0 0 0 0 0 0 0 0 0 0 0 0 
248 3 0 0 0 0 0 0 0 0 0 0 0 0 0 0 
252 3 0 0 0 0 0 0 0 0 0 0 0 0 0 0 
280 3 0 0 0 0 0 0 0 0 0 0 0 0 0 0 
284 3 0 0 0 0 0 0 0 0 0 0 0 0 0 0 
288 3 0 0 0 0 0 0 0 0 0 0 0 0 0 0 
316 3 0 0 0 0 0 0 0 0 0 0 0 0 0 0 
320 3 0 0 0 0 0 0 0 0 0 0 0 0 0 0 
324 3 0 0 0 0 0 0 0 0 0 0 0 0 0 0 
352 3 0 0 0 0 0 0 0 0 0 0 0 0 0 0 
356 3 0 0 0 0 0 0 0 0 0 0 0 0 0 0 
360 3 0 0 0 0 0 0 0 0 0 0 0 0 0 0 
388 3 0 0 0 0 0 0 0 0 0 0 0 0 0 0 
392 3 0 0 0 0 0 0 0 0 0 0 0 0 0 0 
396 3 0 0 0 0 0 0 0 0 0 0 0 0 0 0 
424 3 0 0 0 0 0 0 0 0 0 0 0 0 0 0 
428 3 0 0 0 0 0 0 0 0 0 0 0 0 0 0 
432 3 0 0 0 0 0 0 0 0 0 0 0 0 0 0 
460 3 0 0 0 0 0 0 0 0 0 0 0 0 0 0 
464 3 0 0 0 0 0 0 0 0 0 0 0 0 0 0 
468 3 0 0 0 0 0 0 0 0 0 0 0 0 0 0 
496 3 0 0 0 0 0 0 0 0 0 0 0 0 0 0 
500 3 0 0 0 0 0 0 0 0 0 0 0 0 0 0 
504 3 0 0 0 0 0 0 0 0 0 0 0 0 0 0 
532 3 0 0 0 0 0 0 0 0 0 0 0 0 0 0 
536 3 0 0 0 0 0 0 0 0 0 0 0 0 0 0 
540 3 0 0 0 0 0 0 0 0 0 0 0 0 0 0 
568 3 0 0 0 0 0 0 0 0 0 0 0 0 0 0 
572 3 0 0 0 0 0 0 0 0 0 0 0 0 0 0 
576 3 0 0 0 0 0 0 0 0 0 0 0 0 0 0 
604 3 0 0 0 0 0 0 0 0 0 0 0 0 0 0 
608 3 0 0 0 0 0 0 0 0 0 0 0 0 0 0 
612 3 0 0 0 0 0 0 0 0 0 0 0 0 0 0 
640 3 0 0 0 0 0 0 0 0 0 0 0 0 0 0 
644 3 0 0 0 0 0 0 0 0 0 0 0 0 0 0 
648 3 0 0 0 0 0 0 0 0 0 0 0 0 0 0 
29 3 0 0 0 0 0 0 0 0 0 0 0 0 0 0 
33 3 0 0 0 0 0 0 0 0 0 0 0 0 0 0 
65 3 0 0 0 0 0 0 0 0 0 0 0 0 0 0 
69 3 0 0 0 0 0 0 0 0 0 0 0 0 0 0 
101 3 0 0 0 0 0 0 0 0 0 0 0 0 0 0 
105 3 0 0 0 0 0 0 0 0 0 0 0 0 0 0 
137 3 0 0 0 0 0 0 0 0 0 0 0 0 0 0 
141 3 0 0 0 0 0 0 0 0 0 0 0 0 0 0 
173 3 0 0 0 0 0 0 0 0 0 0 0 0 0 0 
177 3 0 0 0 0 0 0 0 0 0 0 0 0 0 0 
209 3 0 0 0 0 0 0 0 0 0 0 0 0 0 0 
213 3 0 0 0 0 0 0 0 0 0 0 0 0 0 0 
245 3 0 0 0 0 0 0 0 0 0 0 0 0 0 0 
249 3 0 0 0 0 0 0 0 0 0 0 0 0 0 0 
281 3 0 0 0 0 0 0 0 0 0 0 0 0 0 0 
285 3 0 0 0 0 0 0 0 0 0 0 0 0 0 0 
317 3 0 0 0 0 0 0 0 0 0 0 0 0 0 0 
321 3 0 0 0 0 0 0 0 0 0 0 0 0 0 0 
353 3 0 0 0 0 0 0 0 0 0 0 0 0 0 0 
357 3 0 0 0 0 0 0 0 0 0 0 0 0 0 0 
389 3 0 0 0 0 0 0 0 0 0 0 0 0 0 0 
393 3 0 0 0 0 0 0 0 0 0 0 0 0 0 0 
425 3 0 0 0 0 0 0 0 0 0 0 0 0 0 0 
429 3 0 0 0 0 0 0 0 0 0 0 0 0 0 0 
461 3 0 0 0 0 0 0 0 0 0 0 0 0 0 0 
465 3 0 0 0 0 0 0 0 0 0 0 0 0 0 0 
497 3 0 0 0 0 0 0 0 0 0 0 0 0 0 0 
501 3 0 0 0 0 0 0 0 0 0 0 0 0 0 0 
533 3 0 0 0 0 0 0 0 0 0 0 0 0 0 0 
537 3 0 0 0 0 0 0 0 0 0 0 0 0 0 0 
569 3 0 0 0 0 0 0 0 0 0 0 0 0 0 0 
573 3 0 0 0 0 0 0 0 0 0 0 0 0 0 0 
605 3 0 0 0 0 0 0 0 0 0 0 0 0 0 0 
609 3 0 0 0 0 0 0 0 0 0 0 0 0 0 0 
641 3 0 0 0 0 0 0 0 0 0 0 0 0 0 0 
645 3 0 0 0 0 0 0 0 0 0 0 0 0 0 0 
30 3 0 0 0 0 0 0 0 0 0 0 0 0 0 0 
34 3 0 0 0 0 0 0 0 0 0 0 0 0 0 0 
66 3 0 0 0 0 0 0 0 0 0 0 0 0 0 0 
70 3 0 0 0 0 0 0 0 0 0 0 0 0 0 0 
102 3 0 0 0 0 0 0 0 0 0 0 0 0 0 0 
106 3 0 0 0 0 0 0 0 0 0 0 0 0 0 0 
138 3 0 0 0 0 0 0 0 0 0 0 0 0 0 0 
142 3 0 0 0 0 0 0 0 0 0 0 0 0 0 0 
174 3 0 0 0 0 0 0 0 0 0 0 0 0 0 0 
178 3 0 0 0 0 0 0 0 0 0 0 0 0 0 0 
210 3 0 0 0 0 0 0 0 0 0 0 0 0 0 0 