ITEM: TIMESTEP
19000
ITEM: NUMBER OF CELLS
1036
ITEM: BOX BOUNDS oo ao pp
-10 10
0 10
-0.5 0.5
ITEM: CELLS id proc f_avg_n f_avg_nrho f_avg_temp_tra f_avg_temp_rot f_avg_temp_vib f_avg_vel[1] f_avg_vel[2] f_avg_vel[3] f_avg_nrho_CO2 f_avg_nrho_O2 f_avg_nrho_C2 f_avg_nrho_CO f_avg_nrho_O f_avg_nrho_C 
1 0 37.685 5.84292e+17 231.526 140.24 136.667 7465.59 6.70562 -2.2386 5.83569e+17 0 0 5.16821e+13 6.71868e+14 0 
5 0 40.0217 6.20522e+17 621.843 172.865 141.358 7439.3 30.2084 -0.923097 6.14707e+17 2.58411e+13 0 1.91224e+15 3.87616e+15 0 
9 0 43.17 6.69335e+17 2041.95 254.683 153.841 7343.1 36.4661 0.691516 6.47319e+17 2.58411e+13 0 8.26914e+15 1.36958e+16 2.58411e+13 
37 0 37.4883 5.81243e+17 307.644 144.589 137.713 7464.25 1.08459 0.861095 5.799e+17 0 0 4.13457e+14 9.30279e+14 0 
41 0 37.715 5.84758e+17 688.178 170.504 140.73 7438.26 -0.320099 2.30299 5.79383e+17 5.16821e+13 0 1.60215e+15 3.72111e+15 0 
45 0 38.5767 5.98117e+17 2488.63 264.666 158.658 7316.16 6.26747 -4.07506 5.75791e+17 3.10093e+14 0 7.51975e+15 1.43935e+16 1.03364e+14 
73 0 37.405 5.79951e+17 275.129 140.077 136.706 7466.3 -0.0949522 1.54671 5.78969e+17 0 0 2.84252e+14 6.97709e+14 0 
77 0 37.6767 5.84163e+17 699.134 165.781 141.392 7438.06 0.792147 -0.595397 5.78892e+17 0 0 1.60215e+15 3.66943e+15 0 
81 0 38.8067 6.01684e+17 2336.74 249.128 167.522 7325.62 8.69891 0.376268 5.79202e+17 2.58411e+13 0 7.95905e+15 1.44968e+16 0 
109 0 37.7567 5.85404e+17 248.042 139.334 137.709 7465.96 0.399018 -0.450706 5.84551e+17 0 0 3.10093e+14 5.42663e+14 0 
113 0 37.575 5.82587e+17 660.03 164.775 140.305 7438.38 4.0577 -0.346832 5.77651e+17 2.58411e+13 0 1.52462e+15 3.38518e+15 0 
117 0 39.16 6.07162e+17 2116.67 246.226 154.642 7339.18 9.29479 0.152218 5.86489e+17 1.03364e+14 0 6.61531e+15 1.3825e+16 1.29205e+14 
145 0 37.4617 5.8083e+17 263.67 140.548 138.8 7464.88 -0.311447 2.05111 5.80003e+17 0 0 2.84252e+14 5.42663e+14 0 
149 0 37.8667 5.87109e+17 614.474 168.213 140.427 7442.93 0.97271 -0.464199 5.82148e+17 0 0 1.57631e+15 3.35934e+15 2.58411e+13 
153 0 38.88 6.02821e+17 2076.43 277.551 159.121 7342.19 12.4523 0.965883 5.83672e+17 5.16821e+13 0 7.41639e+15 1.16543e+16 2.58411e+13 
181 0 37.4067 5.79977e+17 264.022 137.053 136.183 7466.4 1.55827 3.42854 5.79047e+17 0 0 1.29205e+14 8.01073e+14 0 
185 0 37.7217 5.84861e+17 632.738 157.891 141.437 7439.26 0.230828 0.255123 5.80494e+17 0 0 1.4471e+15 2.8942e+15 2.58411e+13 
189 0 38.45 5.96154e+17 1969.53 242.175 155.624 7352.9 13.0639 -2.81355 5.78995e+17 7.75232e+13 0 5.7884e+15 1.12667e+16 2.58411e+13 
217 0 37.27 5.77858e+17 211.958 139.413 136.747 7466.46 -1.00125 -1.87317 5.7729e+17 0 0 1.29205e+14 4.39298e+14 0 
221 0 37.6467 5.83698e+17 542.093 160.406 140.744 7447.95 2.09867 0.751839 5.79977e+17 0 0 1.26621e+15 2.40322e+15 5.16821e+13 
225 0 38.715 6.00262e+17 1845.83 249.697 153.254 7356.99 16.4499 1.97869 5.82871e+17 1.03364e+14 0 6.38275e+15 1.08791e+16 2.58411e+13 
253 0 37.43 5.80339e+17 241.675 140.136 137.81 7464.93 0.348558 -0.568682 5.79589e+17 0 0 1.55046e+14 5.94345e+14 0 
257 0 37.7167 5.84783e+17 594.185 162.836 138.777 7444.07 2.33095 0.489878 5.80442e+17 0 0 8.78596e+14 3.43686e+15 2.58411e+13 
261 0 38.23 5.92743e+17 1441.67 225.541 151.076 7387.84 11.3787 -1.78152 5.79357e+17 2.58411e+13 0 4.49635e+15 8.86349e+15 0 
289 0 37.3517 5.79124e+17 221.615 139.074 137.22 7470.09 0.122474 1.25189 5.78375e+17 0 0 1.55046e+14 5.94345e+14 0 
293 0 37.6617 5.83931e+17 545.457 152.369 140.396 7448.37 0.738714 -0.663108 5.80132e+17 0 0 1.18869e+15 2.60995e+15 0 
297 0 37.8583 5.8698e+17 1273.53 221.407 150.657 7395.55 10.3679 0.662769 5.74499e+17 1.03364e+14 0 4.3413e+15 7.98489e+15 5.16821e+13 
325 0 37.3683 5.79383e+17 241.159 138.452 135.404 7468.89 1.5195 2.48705 5.78582e+17 0 0 1.80888e+14 6.20186e+14 0 
329 0 37.6217 5.83311e+17 507.729 158.833 140.292 7448.83 2.48076 0.0625709 5.79719e+17 2.58411e+13 0 1.21453e+15 2.3257e+15 2.58411e+13 
333 0 38.1867 5.92071e+17 1124.93 204.515 147.745 7407.79 12.1396 0.836685 5.82174e+17 7.75232e+13 0 3.43686e+15 6.3569e+15 2.58411e+13 
361 0 37.4417 5.8052e+17 197.439 136.967 136.159 7469.85 -1.5828 0.740992 5.80003e+17 0 0 7.75232e+13 4.39298e+14 0 
365 0 37.445 5.80571e+17 430.231 148.161 137.905 7457.49 3.592 -0.0204088 5.77832e+17 0 0 1.03364e+15 1.70551e+15 0 
369 0 37.9083 5.87755e+17 989.87 192.388 146.347 7416.97 11.1197 -1.03692 5.79021e+17 2.58411e+13 0 3.10093e+15 5.60751e+15 0 
397 0 37.4317 5.80365e+17 205.418 138.069 136.64 7467.85 -0.0213093 -1.51885 5.79822e+17 0 0 1.03364e+14 4.39298e+14 0 
401 0 37.5217 5.8176e+17 371.659 146.2 139.232 7456.9 2.9314 1.70127 5.79667e+17 0 0 5.94345e+14 1.49878e+15 0 
405 0 37.51 5.81579e+17 917.469 186.401 142.745 7422.45 12.4853 -0.122717 5.74008e+17 7.75232e+13 0 2.48074e+15 5.01317e+15 0 
433 0 37.53 5.81889e+17 235.828 140.752 137.128 7468.31 1.95634 0.766912 5.81166e+17 0 0 2.84252e+14 4.39298e+14 0 
437 0 37.4367 5.80442e+17 324.877 145.653 136.934 7461.12 1.72991 0.585984 5.78349e+17 0 0 5.94345e+14 1.49878e+15 0 
441 0 38.1767 5.91916e+17 663.856 172.058 142.504 7437.56 9.62452 -2.13124 5.86282e+17 2.58411e+13 0 1.93808e+15 3.64359e+15 2.58411e+13 
469 0 37.4483 5.80623e+17 191.807 137.22 136.871 7468.27 -0.203281 1.54469 5.8021e+17 0 0 7.75232e+13 3.35934e+14 0 
473 0 37.4417 5.8052e+17 350.118 148.265 137.118 7458.83 2.05906 0.51476 5.78582e+17 0 0 5.42663e+14 1.39542e+15 0 
477 0 37.86 5.87006e+17 631.215 172.603 140.79 7438.84 9.09257 0.0648061 5.81217e+17 2.58411e+13 0 2.06729e+15 3.66943e+15 2.58411e+13 
505 0 37.475 5.81037e+17 209.379 141.655 136.767 7467.88 1.18749 -0.953695 5.80442e+17 0 0 1.80888e+14 4.13457e+14 0 
509 0 37.4417 5.8052e+17 284.386 140.992 137.119 7462.71 0.634799 -0.442092 5.79253e+17 2.58411e+13 0 2.84252e+14 9.5612e+14 0 
513 0 37.92 5.87936e+17 496.884 160.325 139.48 7448.03 6.48729 -0.531006 5.8344e+17 0 0 1.42126e+15 3.07509e+15 0 
541 0 37.4533 5.80701e+17 200.354 137.36 136.158 7469.59 -1.01259 0.383204 5.80184e+17 0 0 5.16821e+13 4.65139e+14 0 
545 0 37.6583 5.83879e+17 256.331 150.358 136.825 7466.45 -0.00519754 -0.369735 5.82613e+17 2.58411e+13 0 4.13457e+14 8.26914e+14 0 
549 0 37.6433 5.83646e+17 474.534 159.57 140.49 7450.48 8.31064 1.2793 5.80184e+17 0 0 1.18869e+15 2.24817e+15 2.58411e+13 
577 0 37.4083 5.80003e+17 179.039 135.843 136.504 7469.26 0.142436 -1.79352 5.79822e+17 0 0 2.58411e+13 1.55046e+14 0 
581 0 37.5133 5.81631e+17 231.823 140.516 137.872 7467.35 2.4173 1.75835 5.80726e+17 2.58411e+13 0 3.87616e+14 4.9098e+14 0 
585 0 37.4967 5.81372e+17 386.695 154.088 138.507 7457.53 6.62884 0.283981 5.78659e+17 2.58411e+13 0 6.46027e+14 2.0156e+15 2.58411e+13 
613 0 37.5017 5.8145e+17 203.482 138.887 137.634 7468.43 1.69592 1.04327 5.81011e+17 0 0 1.03364e+14 3.35934e+14 0 
617 0 37.31 5.78478e+17 220.093 144.875 137.227 7468.82 4.6113 -1.02087 5.77574e+17 0 0 2.06729e+14 6.97709e+14 0 
621 0 37.6867 5.84318e+17 325.722 143.996 139.185 7460.23 3.46121 -0.21475 5.82665e+17 2.58411e+13 0 6.20186e+14 1.0078e+15 0 
2 0 38.6067 5.98583e+17 356.349 143.973 138.161 7459.36 13.7501 -0.71102 5.96722e+17 0 0 7.2355e+14 1.13701e+15 0 
6 0 41.12 6.37551e+17 842.459 163.657 143.516 7428.43 30.2924 1.11558 6.29592e+17 0 0 2.48074e+15 5.45247e+15 2.58411e+13 
38 0 37.5983 5.82949e+17 325.825 147.935 137.778 7463.19 -1.24989 0.546492 5.81398e+17 0 0 4.65139e+14 1.08533e+15 0 
42 0 37.7267 5.84939e+17 878.336 176.027 145.779 7424.74 2.71473 2.62026 5.77522e+17 5.16821e+13 0 2.60995e+15 4.67723e+15 7.75232e+13 
74 0 37.625 5.83362e+17 345.249 142.477 138.059 7460.37 0.00744275 1.19078 5.81476e+17 0 0 6.20186e+14 1.26621e+15 0 
78 0 38.08 5.90417e+17 909.128 181.08 143.467 7424.68 0.0508343 -0.242577 5.82716e+17 1.03364e+14 0 2.17065e+15 5.40078e+15 2.58411e+13 
110 0 37.3867 5.79667e+17 340.311 142.269 137.93 7462.44 1.15003 0.662348 5.78013e+17 0 0 4.9098e+14 1.16285e+15 0 
114 0 37.9417 5.88272e+17 825.683 168.482 141.208 7429.14 2.89773 1.93257 5.80701e+17 5.16821e+13 0 2.42906e+15 5.09069e+15 0 
146 0 37.5767 5.82613e+17 351.495 139.69 136.361 7461.15 -0.744101 -0.484221 5.81088e+17 0 0 4.65139e+14 1.05948e+15 0 
150 0 37.5733 5.82561e+17 790.284 164.124 143.089 7429.36 2.74039 0.513734 5.7592e+17 0 0 1.98976e+15 4.65139e+15 0 
182 0 37.56 5.82354e+17 274.677 141.602 137.106 7461.66 0.332312 1.96853 5.81243e+17 0 0 4.13457e+14 6.97709e+14 0 
186 0 38.0467 5.899e+17 777.155 169.858 140.682 7430.19 3.82491 2.32238 5.83336e+17 2.58411e+13 0 2.14481e+15 4.36714e+15 2.58411e+13 
218 0 37.7017 5.84551e+17 264.759 141.902 137.358 7465.09 1.00627 -0.189445 5.83336e+17 0 0 3.35934e+14 8.78596e+14 0 
222 0 37.9667 5.8866e+17 721.506 169.396 142.763 7436.11 5.13311 1.3586 5.82975e+17 2.58411e+13 0 1.75719e+15 3.902e+15 0 
254 0 37.5617 5.8238e+17 297.061 143.893 137.452 7464.87 1.0262 0.745571 5.81088e+17 0 0 4.65139e+14 8.26914e+14 0 
258 0 37.7417 5.85171e+17 630.891 163.479 139.787 7442.14 2.86555 0.225294 5.799e+17 0 0 1.83472e+15 3.41102e+15 2.58411e+13 
290 0 37.745 5.85223e+17 288.067 142.972 138.352 7462.62 0.697109 -0.890726 5.83827e+17 0 0 3.10093e+14 1.05948e+15 2.58411e+13 
294 0 37.7467 5.85249e+17 706.367 165.011 141.779 7436.68 5.94897 -0.680653 5.80675e+17 0 0 1.73135e+15 2.84252e+15 0 
326 0 37.665 5.83982e+17 274.417 137.147 137.155 7466.01 1.83615 1.1586 5.8282e+17 0 0 2.06729e+14 9.5612e+14 0 
330 0 37.6833 5.84267e+17 580.247 162.307 141.25 7444.64 1.71528 -0.0689562 5.79977e+17 0 0 1.29205e+15 2.99756e+15 0 
362 0 37.5617 5.8238e+17 265.485 142.277 136.729 7464.71 -0.429154 -0.725893 5.81321e+17 0 0 2.84252e+14 7.75232e+14 0 
366 0 37.9117 5.87807e+17 467.679 158.555 140.117 7451 3.84349 0.742054 5.84267e+17 0 0 1.16285e+15 2.37738e+15 0 
398 0 37.7083 5.84654e+17 260.261 141.215 138.178 7464.22 3.81132 -0.335266 5.83543e+17 0 0 4.13457e+14 6.97709e+14 0 
402 0 37.82 5.86386e+17 436.85 159.941 138.25 7453.84 2.4483 2.32117 5.82923e+17 0 0 1.26621e+15 2.19649e+15 0 
434 0 37.3033 5.78375e+17 248.156 141.023 137.164 7466.95 0.357077 1.58612 5.77496e+17 0 0 2.58411e+14 6.20186e+14 0 
438 0 37.6917 5.84396e+17 368.143 148.956 139.639 7459.52 2.78946 0.37858 5.82122e+17 0 0 7.75232e+14 1.49878e+15 0 
470 0 37.525 5.81812e+17 209.783 140.95 136.362 7467.01 1.61908 0.930147 5.81166e+17 0 0 2.06729e+14 4.39298e+14 0 
474 0 37.5083 5.81553e+17 351.358 148.129 136.642 7459.2 1.55104 -0.0813423 5.79486e+17 2.58411e+13 0 7.75232e+14 1.26621e+15 0 
506 0 37.42 5.80184e+17 217.787 140.358 136.669 7467.88 2.32533 -0.419849 5.79512e+17 0 0 1.03364e+14 5.68504e+14 0 
510 0 37.5333 5.81941e+17 330.92 152.108 138.693 7460.17 4.63637 -1.79989 5.79925e+17 5.16821e+13 0 6.46027e+14 1.31789e+15 0 
542 0 37.5417 5.8207e+17 217.693 137.818 136.977 7468.35 0.500553 -1.7466 5.81476e+17 0 0 1.80888e+14 4.13457e+14 0 
546 0 37.5017 5.8145e+17 256.594 143.069 136.785 7464.25 -0.628582 -0.910655 5.80339e+17 0 0 3.35934e+14 7.75232e+14 0 
578 0 37.5433 5.82096e+17 185.207 139.219 136.91 7471.18 1.2256 -0.287692 5.81708e+17 2.58411e+13 0 7.75232e+13 2.84252e+14 0 
582 0 37.555 5.82277e+17 275.288 149.903 138.624 7462.96 2.86277 1.00976 5.80339e+17 0 0 7.75232e+14 1.16285e+15 0 
614 0 37.5133 5.81631e+17 193.363 138.833 137.129 7468.25 0.577842 -1.339 5.81295e+17 0 0 1.03364e+14 2.3257e+14 0 
618 0 37.355 5.79176e+17 223.218 142.539 137.037 7468.45 3.18756 -0.580115 5.78401e+17 0 0 3.10093e+14 4.65139e+14 0 
3 0 39.0617 6.05637e+17 320.847 145.898 137.916 7461.21 18.0707 -0.825315 6.03389e+17 0 0 3.87616e+14 1.86056e+15 0 
7 0 41.7583 6.47448e+17 1208.54 197.704 148.851 7400.82 31.234 -0.826745 6.35561e+17 7.75232e+13 0 3.85032e+15 7.93321e+15 2.58411e+13 
39 0 37.4917 5.81295e+17 426.889 151.514 138.623 7453.53 0.910295 -0.463757 5.78866e+17 0 0 8.26914e+14 1.60215e+15 0 
43 0 37.9417 5.88272e+17 1230.63 205.859 151.029 7401.84 2.63976 1.30375 5.77884e+17 2.58411e+13 0 3.38518e+15 6.95125e+15 2.58411e+13 
75 0 37.5217 5.8176e+17 442.24 146.903 140.348 7452.73 0.315043 -0.323298 5.78892e+17 0 0 8.26914e+14 2.0156e+15 2.58411e+13 
79 0 38.045 5.89874e+17 1156.05 184.199 144.325 7409.08 2.11867 0.635279 5.80029e+17 2.58411e+13 0 2.8942e+15 6.92541e+15 0 
111 0 37.6833 5.84267e+17 404.767 144.001 138.638 7456.34 1.82147 -0.840748 5.81889e+17 0 0 6.46027e+14 1.73135e+15 0 
115 0 38.015 5.89409e+17 1111.34 194.984 148.726 7407.37 3.93616 -1.18102 5.79253e+17 2.58411e+13 0 3.79864e+15 6.33106e+15 0 
147 0 37.5633 5.82406e+17 420.11 152.141 139.11 7455.8 1.3392 0.321853 5.79667e+17 0 0 9.04438e+14 1.83472e+15 0 
151 0 38.325 5.94215e+17 1113.56 200.9 144.437 7410.25 4.13244 3.99154 5.84861e+17 0 0 3.4627e+15 5.89176e+15 0 
183 0 37.455 5.80726e+17 383.758 145.782 138.484 7458.01 -1.09244 -1.97085 5.78323e+17 0 0 5.94345e+14 1.80888e+15 0 
187 0 38.0517 5.89978e+17 988.994 172.426 147.051 7420.43 5.3413 0.916009 5.82044e+17 0 0 2.73915e+15 5.19406e+15 0 
219 0 37.6483 5.83724e+17 345.72 144.379 137.614 7460.87 -0.0338247 -1.53083 5.81734e+17 0 0 4.9098e+14 1.49878e+15 0 
223 0 37.8183 5.8636e+17 949.404 178.438 143.438 7417.85 5.11146 -0.798191 5.78737e+17 2.58411e+13 0 2.53243e+15 4.96149e+15 1.03364e+14 
255 0 37.57 5.82509e+17 339.832 142.732 137.257 7461.95 -1.07912 1.46981 5.80752e+17 0 0 3.35934e+14 1.42126e+15 0 
259 0 37.855 5.86928e+17 904.277 166.702 141.983 7423.08 7.294 1.20675 5.80106e+17 0 0 2.53243e+15 4.28962e+15 0 
291 0 37.3667 5.79357e+17 360.746 140.892 137.746 7457.83 -0.230311 -0.567612 5.77264e+17 0 0 4.13457e+14 1.67967e+15 0 
295 0 37.925 5.88014e+17 775.188 179.469 145.016 7433.46 5.4828 1.53956 5.81812e+17 0 0 2.14481e+15 4.00537e+15 5.16821e+13 
327 0 37.38 5.79564e+17 311.024 141.093 137.182 7462.97 0.521043 1.71354 5.78323e+17 0 0 3.87616e+14 8.52755e+14 0 
331 0 37.6133 5.83181e+17 698.363 161.662 140.586 7437.63 7.18451 0.545219 5.77729e+17 0 0 1.86056e+15 3.56607e+15 2.58411e+13 
363 0 37.5317 5.81915e+17 303.847 143.864 137.805 7463.43 -0.0869385 -1.47463 5.80184e+17 0 0 5.68504e+14 1.13701e+15 2.58411e+13 
367 0 37.755 5.85378e+17 523.869 168.818 142.915 7446.98 3.73809 0.55274 5.80649e+17 0 0 1.49878e+15 3.23013e+15 0 
399 0 37.4167 5.80132e+17 319.536 145.619 138.178 7462.49 1.61771 -0.529588 5.78478e+17 0 0 4.39298e+14 1.21453e+15 0 
403 0 37.3667 5.79357e+17 535.555 149.398 139.904 7448.11 5.47196 -0.730599 5.75196e+17 0 0 1.26621e+15 2.81668e+15 7.75232e+13 
435 0 37.6733 5.84112e+17 242.679 138.861 136.825 7465.05 2.12799 -3.1496 5.83052e+17 0 0 3.10093e+14 7.49391e+14 0 
439 0 37.6583 5.83879e+17 480.081 156.884 140.018 7449.96 3.65387 0.952128 5.80597e+17 0 0 1.08533e+15 2.19649e+15 0 
471 0 37.5317 5.81915e+17 217.209 138.189 136.95 7467.93 0.34004 1.21889 5.80881e+17 0 0 3.61775e+14 6.71868e+14 0 
475 0 37.95 5.88401e+17 442.746 153.247 139.454 7452.03 4.90435 0.675276 5.85197e+17 2.58411e+13 0 1.0078e+15 2.17065e+15 0 
507 0 37.51 5.81579e+17 234.793 147.055 136.79 7467.42 1.54119 0.354816 5.80726e+17 0 0 2.58411e+14 5.94345e+14 0 
511 0 37.4867 5.81217e+17 378.851 155.345 137.998 7458.87 4.06724 -0.503242 5.7884e+17 0 0 7.49391e+14 1.62799e+15 0 
543 0 37.3333 5.7884e+17 196.146 141.395 136.504 7468.93 -0.0160556 1.45992 5.78116e+17 2.58411e+13 0 1.55046e+14 5.42663e+14 0 
547 0 37.7 5.84525e+17 344.257 150.933 137.298 7459.04 2.73248 -0.0358904 5.82148e+17 0 0 6.97709e+14 1.67967e+15 0 
579 0 37.3833 5.79615e+17 211.26 138.234 136.922 7469.01 0.616937 -1.33971 5.79176e+17 0 0 1.03364e+14 3.35934e+14 0 
583 0 37.095 5.75145e+17 297.88 142.674 138.072 7463.12 2.19506 -1.4242 5.73362e+17 5.16821e+13 0 5.16821e+14 1.21453e+15 0 
615 0 37.3783 5.79538e+17 186.826 138.236 137.423 7469.5 0.593957 0.588194 5.79073e+17 0 0 1.55046e+14 2.84252e+14 2.58411e+13 
619 0 37.6417 5.83621e+17 328.575 144.091 139.082 7460.04 3.56262 -0.530684 5.81838e+17 0 0 5.16821e+14 1.26621e+15 0 
4 0 40.0767 6.21374e+17 512.134 152.999 140.916 7449.64 23.1725 -0.0437437 6.17653e+17 0 0 1.21453e+15 2.50658e+15 0 
8 0 42.6117 6.60679e+17 1707.92 231.588 158.49 7369.47 33.2881 -1.11207 6.44011e+17 2.58411e+13 0 6.40859e+15 1.01039e+16 1.29205e+14 
40 0 38.0267 5.8959e+17 516.438 155.149 139.066 7449.66 0.480062 -0.798512 5.86153e+17 0 0 9.81961e+14 2.4549e+15 0 
44 0 38.4633 5.9636e+17 1684.84 224.65 153.171 7371.32 2.64803 2.48884 5.80546e+17 2.58411e+13 0 5.89176e+15 9.87129e+15 2.58411e+13 
76 0 37.8483 5.86825e+17 525.109 160.492 140.607 7448.36 -1.02552 -0.915694 5.82613e+17 2.58411e+13 0 1.31789e+15 2.86836e+15 0 
80 0 38.3433 5.945e+17 1808.56 218.155 151.102 7365.19 5.74173 1.67515 5.78633e+17 1.03364e+14 0 5.89176e+15 9.84545e+15 2.58411e+13 
112 0 37.4933 5.81321e+17 517.766 149.101 139.162 7449.42 2.49769 0.428849 5.78168e+17 2.58411e+13 0 1.11117e+15 2.0156e+15 0 
116 0 38.5183 5.97213e+17 1658.68 211.988 150.049 7373.32 8.00338 1.04824 5.82251e+17 2.58411e+13 0 5.2199e+15 9.66456e+15 5.16821e+13 
148 0 37.6667 5.84008e+17 424.391 147.33 138.241 7454.04 0.189006 1.85873 5.80907e+17 2.58411e+13 0 8.26914e+14 2.24817e+15 0 
152 0 37.8967 5.87574e+17 1419.04 213.741 146.106 7389.58 7.00638 -1.05825 5.74757e+17 2.58411e+13 0 4.26378e+15 8.47587e+15 5.16821e+13 
184 0 37.9517 5.88427e+17 506.39 152.329 137.799 7450.68 0.472346 -1.4408 5.85016e+17 0 0 1.13701e+15 2.27401e+15 0 
188 0 38.2967 5.93776e+17 1501.88 213.973 148.332 7381.83 7.05266 5.90539 5.80675e+17 2.58411e+13 0 4.57387e+15 8.45003e+15 5.16821e+13 
220 0 37.7233 5.84887e+17 422.877 147.053 138.438 7458.47 0.86481 -0.181621 5.82199e+17 2.58411e+13 0 8.78596e+14 1.78303e+15 0 
224 0 38.25 5.93053e+17 1337.25 204.254 147.324 7391.42 9.93118 -0.431506 5.80623e+17 7.75232e+13 0 4.10873e+15 8.21746e+15 2.58411e+13 
256 0 37.6233 5.83336e+17 418.457 152.216 137.393 7455.32 3.63116 -0.478782 5.80804e+17 0 0 7.49391e+14 1.78303e+15 0 
260 0 37.99 5.89021e+17 1266.51 195.661 147.043 7398.32 11.4946 1.17099 5.78452e+17 5.16821e+13 0 3.54023e+15 6.95125e+15 2.58411e+13 
292 0 37.5967 5.82923e+17 426.14 146.295 138.816 7456.34 0.147066 0.786777 5.80365e+17 0 0 7.75232e+14 1.78303e+15 0 
296 0 38.1 5.90727e+17 999.045 198.238 148.747 7415.53 10.2975 -0.274866 5.82587e+17 2.58411e+13 0 2.94588e+15 5.11653e+15 5.16821e+13 
328 0 37.4983 5.81398e+17 358.11 144.028 139.78 7458.68 1.85388 0.736015 5.79305e+17 0 0 4.9098e+14 1.60215e+15 0 
332 0 38.045 5.89874e+17 857.549 180.436 142.905 7426.15 8.59405 1.23299 5.82845e+17 2.58411e+13 0 2.29986e+15 4.70308e+15 0 
364 0 37.6983 5.84499e+17 357.412 149.373 137.486 7458.27 1.88188 0.317085 5.82406e+17 0 0 8.01073e+14 1.29205e+15 0 
368 0 37.75 5.853e+17 800.628 180.37 144.641 7428.97 6.80477 0.861287 5.78737e+17 0 0 2.48074e+15 4.05705e+15 2.58411e+13 
400 0 37.51 5.81579e+17 313.142 145.642 139.241 7462.15 0.926295 -0.737556 5.80055e+17 0 0 5.42663e+14 9.81961e+14 0 
404 0 38.2283 5.92717e+17 699.114 174.244 139.869 7434.92 11.6018 -0.592542 5.8729e+17 5.16821e+13 0 1.67967e+15 3.69527e+15 0 
436 0 37.5233 5.81786e+17 310.157 148.13 137.779 7463.35 1.80578 -0.172147 5.80184e+17 0 0 4.65139e+14 1.13701e+15 0 
440 0 37.4117 5.80055e+17 573.216 159.749 142.181 7444.27 6.36575 2.0202 5.75377e+17 5.16821e+13 0 1.34374e+15 3.28182e+15 0 
472 0 37.8917 5.87497e+17 309.992 142.95 137.789 7463.38 1.6385 0.440461 5.85714e+17 0 0 4.9098e+14 1.29205e+15 0 
476 0 37.555 5.82277e+17 539 157.79 138.509 7446.26 6.05839 0.827288 5.78272e+17 0 0 1.47294e+15 2.53243e+15 0 
508 0 37.5483 5.82174e+17 288.09 142.46 138.067 7462 2.59666 -0.220091 5.81037e+17 0 0 3.61775e+14 7.75232e+14 0 
512 0 37.4367 5.80442e+17 404.531 171.154 140.158 7455.82 6.47534 -0.64992 5.77548e+17 0 0 8.78596e+14 2.0156e+15 0 
544 0 37.5317 5.81915e+17 239.612 145.609 137.43 7467.24 2.29125 0.126697 5.80856e+17 2.58411e+13 0 3.10093e+14 6.97709e+14 2.58411e+13 
548 0 37.6867 5.84318e+17 452.341 148.583 139.873 7453.44 3.85259 -1.52412 5.80959e+17 2.58411e+13 0 1.08533e+15 2.24817e+15 0 
580 0 37.4783 5.81088e+17 221.557 142.205 136.219 7467.41 1.60529 -0.572964 5.80416e+17 0 0 2.3257e+14 4.39298e+14 0 
584 0 38.0033 5.89228e+17 398.056 148.568 137.984 7456.85 5.73116 -1.28851 5.86877e+17 0 0 7.2355e+14 1.60215e+15 2.58411e+13 
616 0 37.5233 5.81786e+17 185.229 141.168 137.862 7470.38 -0.155179 0.477288 5.81347e+17 0 0 2.06729e+14 2.3257e+14 0 
620 0 37.535 5.81967e+17 327.197 151.5 138.195 7459.4 3.84771 -0.965895 5.80106e+17 0 0 7.49391e+14 1.08533e+15 2.58411e+13 
10 0 44.7467 6.93781e+17 3243.52 323.391 169.881 7260.65 36.3442 -0.190215 6.57526e+17 2.58411e+13 0 1.27138e+16 2.3412e+16 1.03364e+14 
46 0 39.8967 6.18584e+17 3401.09 353.816 177.172 7249.41 7.96566 0.800677 5.84318e+17 1.55046e+14 0 1.24037e+16 2.16031e+16 1.03364e+14 
82 0 39.975 6.19798e+17 3560.87 358.826 170.559 7239.1 10.4794 -3.26926 5.86747e+17 1.80888e+14 0 1.25329e+16 2.01819e+16 1.55046e+14 
118 0 39.2617 6.08738e+17 3637.13 315.397 169.48 7240.22 21.2285 -1.22877 5.76514e+17 1.03364e+14 0 1.21711e+16 1.97426e+16 2.06729e+14 
154 0 39.255 6.08635e+17 3164.46 338.989 170.343 7264.53 20.7984 2.49891 5.78039e+17 1.29205e+14 0 1.14993e+16 1.8864e+16 1.03364e+14 
190 0 39.0017 6.04707e+17 2837.63 284.357 164.905 7293.98 18.4727 0.0915561 5.79434e+17 1.55046e+14 0 9.38031e+15 1.57114e+16 2.58411e+13 
226 0 38.845 6.02278e+17 2310.47 305.386 161.54 7327.57 20.0913 0.423219 5.80701e+17 2.58411e+13 0 7.75232e+15 1.37216e+16 7.75232e+13 
262 0 38.7133 6.00236e+17 2011.07 251.841 151.458 7347.34 21.93 -1.59594 5.82303e+17 0 0 6.09849e+15 1.18352e+16 0 
298 0 38.585 5.98247e+17 1809.52 247.968 153.125 7361.36 21.0913 -0.00257315 5.82535e+17 0 0 6.20186e+15 9.50951e+15 0 
334 0 38.2933 5.93724e+17 1440.15 216.789 152.022 7385.62 15.566 -0.675107 5.80468e+17 0 0 5.06485e+15 8.08826e+15 1.03364e+14 
370 0 38.4867 5.96722e+17 1133.61 196.077 149.529 7405.41 16.4707 -1.23995 5.85765e+17 1.03364e+14 0 3.87616e+15 6.95125e+15 2.58411e+13 
406 0 38.2 5.92277e+17 975.705 203.698 149.228 7414.22 14.0818 -1.27751 5.8269e+17 5.16821e+13 0 3.41102e+15 6.07265e+15 5.16821e+13 
442 0 37.4633 5.80856e+17 854.429 186.283 141.996 7425.42 12.3106 0.488919 5.73801e+17 2.58411e+13 0 2.35154e+15 4.65139e+15 2.58411e+13 
478 0 37.8933 5.87523e+17 741.291 174.157 144.192 7432.55 9.4249 0.761723 5.81657e+17 5.16821e+13 0 2.14481e+15 3.66943e+15 0 
514 0 37.5517 5.82225e+17 668.935 176.639 142.852 7436.69 12.5365 -0.656362 5.77057e+17 2.58411e+13 0 1.65383e+15 3.48854e+15 0 
550 0 37.57 5.82509e+17 490.123 163.981 142.308 7449.01 4.9101 0.575572 5.78659e+17 2.58411e+13 0 1.29205e+15 2.53243e+15 0 
586 0 37.925 5.88014e+17 485.75 168.126 141.076 7450.64 7.37836 -2.23744 5.84189e+17 0 0 1.31789e+15 2.4549e+15 5.16821e+13 
622 0 37.565 5.82432e+17 403.243 164.734 139.065 7455.37 6.60982 1.10973 5.7946e+17 0 0 9.81961e+14 1.98976e+15 0 
11 0 45.7333 7.09079e+17 4902.83 416.328 190.782 7136.81 36.2177 -1.91079 6.53417e+17 2.3257e+14 0 2.14481e+16 3.39552e+16 2.58411e+13 
47 0 41.0033 6.35742e+17 5582.67 457.903 196.668 7087.59 13.4805 0.17018 5.82199e+17 1.80888e+14 0 2.04403e+16 3.27923e+16 1.29205e+14 
83 0 40.8783 6.33804e+17 5133.59 456.029 196.726 7119.42 21.7574 -2.88526 5.84112e+17 1.03364e+14 0 1.84764e+16 3.10351e+16 7.75232e+13 
119 0 40.8583 6.33494e+17 4829.98 440.22 187.676 7144.66 28.7007 0.0136806 5.88039e+17 1.80888e+14 0 1.79079e+16 2.72106e+16 1.55046e+14 
155 0 40.625 6.29876e+17 4518.95 431.704 187.47 7166.8 30.8947 -1.72282 5.85688e+17 1.03364e+14 0 1.67709e+16 2.7159e+16 1.55046e+14 
191 0 40.27 6.24372e+17 3839.31 361.51 177.996 7215.69 31.4327 -3.61984 5.87471e+17 7.75232e+13 0 1.29981e+16 2.37221e+16 1.03364e+14 
227 0 39.6667 6.15018e+17 3354.1 345.797 170.035 7249.12 32.8757 1.59904 5.8207e+17 1.29205e+14 0 1.2688e+16 2.00785e+16 5.16821e+13 
263 0 39.4 6.10883e+17 2878 332.77 170.846 7282.38 31.9816 4.13193 5.84189e+17 1.03364e+14 0 9.53536e+15 1.70293e+16 2.58411e+13 
299 0 38.9883 6.045e+17 2515.59 281.162 158.111 7313.62 28.8969 1.98047 5.82303e+17 7.75232e+13 0 8.08826e+15 1.38767e+16 1.55046e+14 
335 0 38.45 5.96154e+17 1996.72 246.354 156.859 7346.38 25.4892 -0.223986 5.776e+17 1.03364e+14 0 6.48611e+15 1.19127e+16 5.16821e+13 
371 0 38.0883 5.90546e+17 1570.78 217.788 154.41 7377.57 23.6339 -0.800389 5.75222e+17 2.58411e+13 0 5.58167e+15 9.66456e+15 5.16821e+13 
407 0 38.62 5.98789e+17 1329.54 216.112 149.45 7392.56 21.0398 1.18002 5.86825e+17 2.58411e+13 0 4.44466e+15 7.44223e+15 5.16821e+13 
443 0 37.9967 5.89125e+17 1183.24 221.403 148.613 7402.24 19.0967 -0.624146 5.79124e+17 2.58411e+13 0 3.87616e+15 6.07265e+15 2.58411e+13 
479 0 38.2517 5.93078e+17 935.53 190.771 144.837 7417.82 15.2257 -0.529833 5.853e+17 2.58411e+13 0 3.10093e+15 4.62555e+15 2.58411e+13 
515 0 37.6283 5.83414e+17 706.088 183.607 142.277 7434.85 10.9385 -0.185975 5.7729e+17 2.58411e+13 0 2.27401e+15 3.82448e+15 0 
551 0 37.8533 5.86902e+17 619.291 163.739 141.488 7441.98 10.549 0.0203621 5.81528e+17 2.58411e+13 0 1.78303e+15 3.56607e+15 0 
587 0 37.5917 5.82845e+17 527.477 167.45 140.279 7447.64 10.3074 -0.962157 5.78737e+17 0 0 1.70551e+15 2.40322e+15 0 
623 0 37.5183 5.81708e+17 451.465 154.159 141.092 7451.59 9.21592 -1.1103 5.78452e+17 0 0 1.31789e+15 1.91224e+15 2.58411e+13 
12 0 48.1983 7.47298e+17 7337.63 603.048 223.586 6941.58 46.8061 8.30714 6.60214e+17 2.3257e+14 0 3.48596e+16 5.16305e+16 3.61775e+14 
48 0 43.025 6.67087e+17 8085.83 618.66 237.264 6879.7 24.3475 1.7843 5.84706e+17 3.87616e+14 0 3.12935e+16 5.04418e+16 2.58411e+14 
84 0 43.0133 6.66906e+17 7916.86 648.43 235.529 6889.65 34.7581 0.217862 5.84887e+17 4.13457e+14 0 3.07767e+16 5.06227e+16 2.06729e+14 
120 0 42.2217 6.54632e+17 7381.87 641.217 211.385 6941.91 47.0207 0.252069 5.82509e+17 1.03364e+14 0 2.83993e+16 4.3413e+16 2.06729e+14 
156 0 41.8983 6.49619e+17 6581.02 557.255 221.855 6998.66 54.0851 -0.363299 5.82716e+17 2.58411e+14 0 2.5531e+16 4.10098e+16 1.03364e+14 
192 0 41.1517 6.38042e+17 5778.59 471.068 199.223 7064.67 58.0588 2.51299 5.82587e+17 1.03364e+14 0 2.0647e+16 3.46012e+16 1.03364e+14 
228 0 40.9133 6.34347e+17 4720.99 427.506 184.413 7149.47 55.9145 -2.14788 5.89797e+17 2.06729e+14 0 1.63832e+16 2.76499e+16 3.10093e+14 
264 0 40.1783 6.22951e+17 4113.65 393.369 187.108 7192.8 53.3365 2.5605 5.82199e+17 2.06729e+14 0 1.64866e+16 2.40322e+16 2.58411e+13 
300 0 39.7083 6.15664e+17 3156.96 328.958 167.896 7259.7 44.8211 -2.41794 5.85145e+17 5.16821e+13 0 1.14218e+16 1.9019e+16 2.58411e+13 
336 0 39.125 6.06619e+17 2727.92 335.786 168.489 7292.68 41.1437 -0.260768 5.80778e+17 1.03364e+14 0 1.03623e+16 1.53238e+16 5.16821e+13 
372 0 38.89 6.02976e+17 2012.4 278.15 162.283 7341.55 31.0529 1.60615 5.83646e+17 5.16821e+13 0 7.62312e+15 1.15768e+16 7.75232e+13 
408 0 38.4867 5.96722e+17 1701.71 238.512 154.981 7363.62 28.7652 2.53248 5.8114e+17 5.16821e+13 0 5.7884e+15 9.66456e+15 7.75232e+13 
13 0 52.8467 8.19369e+17 11102.7 919.452 290.184 6592 49.4814 -5.47106 6.80731e+17 4.13457e+14 0 5.77806e+16 8.0159e+16 2.84252e+14 
49 0 47.3433 7.34042e+17 12487.3 963.716 307.589 6467.03 45.3733 0.0477541 5.97239e+17 4.65139e+14 0 5.66953e+16 7.94096e+16 2.3257e+14 
85 0 46.7783 7.25281e+17 11744.8 975.25 291.362 6536.08 64.386 -4.14983 5.95973e+17 6.20186e+14 0 5.14496e+16 7.70064e+16 2.3257e+14 
121 0 45.7233 7.08924e+17 10808.2 881.622 287.883 6627.05 81.8616 -0.721991 5.93053e+17 3.87616e+14 0 4.63072e+16 6.89957e+16 1.80888e+14 
157 0 44.6867 6.92851e+17 9468.89 782.328 255.283 6750.22 89.202 4.09779 5.93027e+17 2.84252e+14 0 4.03379e+16 5.87884e+16 4.13457e+14 
193 0 43.5083 6.74581e+17 8130.7 719.207 235.43 6867.01 94.0229 -3.61593 5.91528e+17 4.39298e+14 0 3.33091e+16 4.89947e+16 3.10093e+14 
229 0 42.2717 6.55407e+17 6831.44 606.878 212.598 6976.24 86.0233 0.0925437 5.88505e+17 2.84252e+14 0 2.64354e+16 4.00537e+16 1.29205e+14 
265 0 41.1683 6.383e+17 5431.56 501.722 205.693 7082.55 75.8989 -1.94564 5.84758e+17 1.55046e+14 0 2.0492e+16 3.27923e+16 1.03364e+14 
301 0 40.1333 6.22253e+17 4359.16 450.258 192.283 7167.32 66.853 -0.591874 5.7977e+17 1.55046e+14 0 1.70034e+16 2.52984e+16 2.58411e+13 
337 0 39.7867 6.16878e+17 3506.6 387.983 179.132 7236.29 61.6463 0.754217 5.83259e+17 5.16821e+13 0 1.37216e+16 1.97426e+16 1.03364e+14 
373 0 39.4167 6.11141e+17 2684.04 330.087 166.257 7292.16 46.5666 -2.87972 5.85016e+17 7.75232e+13 0 9.92297e+15 1.60473e+16 7.75232e+13 
409 0 38.845 6.02278e+17 2151.36 294.687 160.435 7333.94 41.8066 -0.891016 5.81088e+17 0 0 8.13994e+15 1.29205e+16 1.29205e+14 
445 0 38.66 5.9941e+17 1633.31 251.127 157.001 7367.28 32.361 -0.237532 5.83982e+17 0 0 6.2277e+15 9.17358e+15 2.58411e+13 
481 0 38.7767 6.01218e+17 1363.38 244.424 150.611 7388.48 28.2385 0.92332 5.88298e+17 5.16821e+13 0 4.31546e+15 8.52755e+15 2.58411e+13 
517 0 38.1583 5.91631e+17 1140.91 225.165 155.318 7401.06 26.0003 0.995388 5.80106e+17 2.58411e+13 0 4.7806e+15 6.667e+15 5.16821e+13 
553 0 38.175 5.9189e+17 798.098 191.117 145.757 7426.12 15.3897 0.448163 5.84241e+17 5.16821e+13 0 2.99756e+15 4.59971e+15 0 
589 0 37.6667 5.84008e+17 615.103 176.849 144.275 7436.87 14.1551 -0.986711 5.77858e+17 0 0 2.3257e+15 3.79864e+15 2.58411e+13 
625 0 37.8917 5.87497e+17 547.557 186.092 142.604 7443.98 13.1885 -1.01116 5.82122e+17 2.58411e+13 0 2.22233e+15 3.12677e+15 0 
444 0 38.2967 5.93776e+17 1376.89 222.395 155.16 7390.26 24.0966 2.31778 5.8083e+17 5.16821e+13 0 4.80644e+15 8.06241e+15 2.58411e+13 
480 0 38.0617 5.90133e+17 1123.58 224.099 150.303 7404.35 20.0916 -0.186113 5.79331e+17 2.58411e+13 0 3.48854e+15 7.2355e+15 5.16821e+13 
516 0 37.8917 5.87497e+17 835.784 198.027 147.899 7422.54 18.8009 -1.08833 5.7977e+17 5.16821e+13 0 2.81668e+15 4.85812e+15 0 
552 0 38.16 5.91657e+17 755.458 178.864 142.402 7432.78 13.5521 -2.74458 5.85559e+17 0 0 2.14481e+15 3.95368e+15 0 
588 0 37.7583 5.8543e+17 679.047 179.746 144.088 7436.98 14.9013 1.97711 5.79409e+17 5.16821e+13 0 2.3257e+15 3.64359e+15 0 
624 0 37.8333 5.86592e+17 486.09 159.491 142.541 7450.12 11.514 -0.647015 5.82458e+17 2.58411e+13 0 1.34374e+15 2.76499e+15 0 
14 0 60.815 9.42915e+17 16168.3 1370.48 394.183 6013.34 60.1747 2.93832 6.99466e+17 7.2355e+14 0 1.01633e+17 1.40601e+17 4.9098e+14 