ITEM: TIMESTEP
20000
ITEM: NUMBER OF CELLS
1036
ITEM: BOX BOUNDS oo ao pp
-10 10
0 10
-0.5 0.5
ITEM: CELLS id proc f_avg_n f_avg_nrho f_avg_temp_tra f_avg_temp_rot f_avg_temp_vib f_avg_vel[1] f_avg_vel[2] f_avg_vel[3] f_avg_nrho_CO2 f_avg_nrho_O2 f_avg_nrho_C2 f_avg_nrho_CO f_avg_nrho_O f_avg_nrho_C 
1 0 37.7857 5.85854e+17 224.658 139.958 136.751 7465.88 6.78909 -1.70523 5.85167e+17 0 0 4.4299e+13 6.42335e+14 0 
5 0 40.1114 6.21913e+17 601.16 169.142 140.6 7440.22 30.0585 -0.751508 6.1642e+17 2.21495e+13 0 1.77196e+15 3.69897e+15 0 
9 0 43.1514 6.69048e+17 2166.47 254.811 154.172 7335.65 35.5661 0.34399 6.46699e+17 2.21495e+13 0 8.30606e+15 1.39985e+16 2.21495e+13 
37 0 37.4529 5.80693e+17 300.62 143.482 137.409 7464.59 1.50791 0.246854 5.79386e+17 0 0 3.76541e+14 9.30279e+14 0 
41 0 37.7271 5.84946e+17 676.64 166.575 140.266 7440.18 -0.0275831 1.98191 5.79696e+17 4.4299e+13 0 1.50617e+15 3.69897e+15 0 
45 0 38.59 5.98324e+17 2512.68 263.077 159.775 7314.49 6.59689 -2.79911 5.75687e+17 2.65794e+14 0 7.68587e+15 1.45965e+16 8.8598e+13 
73 0 37.4114 5.80051e+17 272.833 139.57 136.363 7466.4 0.212628 0.706598 5.79076e+17 0 0 2.65794e+14 7.08784e+14 0 
77 0 37.6714 5.84082e+17 693.762 166.844 141.146 7438.01 1.02278 -0.480362 5.78722e+17 0 0 1.59476e+15 3.76541e+15 0 
81 0 38.82 6.0189e+17 2370.38 257.519 167.661 7322.52 7.69375 0.608763 5.78655e+17 2.21495e+13 0 8.43896e+15 1.47737e+16 0 
109 0 37.7143 5.84747e+17 254.966 139.932 137.665 7465.45 0.184836 -0.554447 5.83861e+17 0 0 3.32242e+14 5.53737e+14 0 
113 0 37.65 5.8375e+17 646.753 162.497 140.308 7439.8 3.93418 -0.160947 5.79032e+17 2.21495e+13 0 1.46187e+15 3.21168e+15 2.21495e+13 
117 0 39.1157 6.06475e+17 2150 249.994 154.476 7337.31 9.68565 -0.359792 5.85788e+17 8.8598e+13 0 6.84419e+15 1.36219e+16 1.32897e+14 
145 0 37.5329 5.81934e+17 269.454 141.648 138.666 7464.66 -0.269126 1.8375 5.81025e+17 0 0 2.87943e+14 6.20186e+14 0 
149 0 37.8186 5.86363e+17 620.894 167.062 140.363 7442.2 0.819228 -1.27567 5.81402e+17 0 0 1.57261e+15 3.36672e+15 2.21495e+13 
153 0 38.8043 6.01647e+17 2078.2 278.257 157.521 7343.1 12.5941 1.66719 5.82642e+17 6.64485e+13 0 7.13214e+15 1.17835e+16 2.21495e+13 
181 0 37.36 5.79253e+17 270.268 137.097 136.055 7466.17 2.09428 2.85163 5.78279e+17 0 0 1.77196e+14 7.97382e+14 0 
185 0 37.7043 5.84592e+17 623.655 156.625 140.782 7440 0.173085 -0.281186 5.8025e+17 0 0 1.41757e+15 2.90158e+15 2.21495e+13 
189 0 38.5043 5.96995e+17 1948.98 235.876 154.522 7353.73 13.3534 -2.68666 5.79763e+17 8.8598e+13 0 5.80317e+15 1.13184e+16 2.21495e+13 
217 0 37.2671 5.77814e+17 218.342 139.006 136.86 7466.7 -0.785631 -1.16738 5.77216e+17 0 0 1.55046e+14 4.4299e+14 0 
221 0 37.7 5.84525e+17 542.764 162.332 140.757 7447.81 2.69652 0.731242 5.80782e+17 0 0 1.30682e+15 2.39215e+15 4.4299e+13 
225 0 38.6029 5.98524e+17 1831.77 252.432 153.579 7358.54 16.0424 1.41792 5.81513e+17 8.8598e+13 0 6.37905e+15 1.0521e+16 2.21495e+13 
253 0 37.5371 5.82e+17 252.245 139.945 138.046 7464.49 0.901907 -0.408796 5.81136e+17 0 0 2.21495e+14 6.42335e+14 0 
257 0 37.7786 5.85743e+17 588.28 160.074 138.695 7444.96 2.47555 0.24322 5.81402e+17 0 0 8.8598e+14 3.43317e+15 2.21495e+13 
261 0 38.2757 5.93451e+17 1478.44 227.423 150.261 7384.84 12.4459 -2.286 5.79829e+17 2.21495e+13 0 4.60709e+15 8.99269e+15 0 
289 0 37.3614 5.79276e+17 237.235 138.795 137.003 7469.07 0.500316 1.02506 5.78456e+17 0 0 1.99345e+14 6.20186e+14 0 
293 0 37.6514 5.83772e+17 516.896 152.832 140.484 7449.26 0.319213 -0.905115 5.80073e+17 2.21495e+13 0 1.15177e+15 2.52504e+15 0 
297 0 37.91 5.87781e+17 1279.18 221.474 149.159 7395.01 10.7669 1.00915 5.75267e+17 8.8598e+13 0 4.3413e+15 8.04027e+15 4.4299e+13 
325 0 37.3857 5.79652e+17 237.331 137.882 135.568 7468.73 1.22159 1.33658 5.78877e+17 0 0 1.55046e+14 6.20186e+14 0 
329 0 37.6757 5.84149e+17 499.137 157.401 140.241 7450 2.76009 -0.113491 5.8076e+17 2.21495e+13 0 1.17392e+15 2.17065e+15 2.21495e+13 
333 0 38.1743 5.91879e+17 1143.93 210.714 147.285 7406.18 12.8824 0.249951 5.81823e+17 6.64485e+13 0 3.49962e+15 6.46765e+15 2.21495e+13 
361 0 37.4286 5.80317e+17 197.616 136.66 136.312 7469.65 -1.15007 0.753988 5.79807e+17 0 0 8.8598e+13 4.2084e+14 0 
365 0 37.4671 5.80915e+17 421.171 150.768 138.175 7457.22 3.33986 -0.288088 5.78168e+17 0 0 1.01888e+15 1.72766e+15 0 
369 0 37.93 5.88091e+17 993.455 193.49 146.353 7417.33 11.1428 -1.32251 5.79253e+17 2.21495e+13 0 3.23383e+15 5.58167e+15 0 
397 0 37.4071 5.79984e+17 207.484 137.879 136.493 7468.25 -0.213878 -1.83879 5.79431e+17 0 0 1.10747e+14 4.4299e+14 0 
401 0 37.4943 5.81336e+17 389.479 149.101 139.386 7455.74 3.08247 1.10845 5.79143e+17 0 0 7.08784e+14 1.48402e+15 0 
405 0 37.6586 5.83883e+17 885.798 183.207 141.925 7424.04 10.5713 -0.204089 5.7664e+17 6.64485e+13 0 2.37e+15 4.80644e+15 0 
433 0 37.54 5.82044e+17 227.156 140.625 137.246 7469.08 1.46462 0.82175 5.8138e+17 0 0 2.43644e+14 4.2084e+14 0 
437 0 37.4329 5.80383e+17 313.564 144.276 137.274 7461.78 2.10738 0.977165 5.78478e+17 0 0 5.09438e+14 1.39542e+15 0 
441 0 38.0543 5.90018e+17 653.729 169.04 142.388 7438.16 9.24247 -1.74903 5.8468e+17 2.21495e+13 0 1.81626e+15 3.47747e+15 2.21495e+13 
469 0 37.4057 5.79962e+17 188.843 136.785 136.572 7468.48 -1.04183 1.70412 5.79564e+17 0 0 6.64485e+13 3.32242e+14 0 
473 0 37.45 5.80649e+17 342.175 148.417 137.43 7459.9 2.04025 0.422621 5.78766e+17 0 0 5.53737e+14 1.32897e+15 0 
477 0 37.8329 5.86585e+17 616.897 170.732 140.316 7439.72 8.65988 0.694943 5.8107e+17 2.21495e+13 0 1.92701e+15 3.54392e+15 2.21495e+13 
505 0 37.4957 5.81358e+17 208.478 140.9 136.977 7467.89 0.837674 -1.13295 5.80782e+17 0 0 1.77196e+14 3.98691e+14 0 
509 0 37.4457 5.80582e+17 290.193 142.885 137.327 7462.07 1.23611 -0.35604 5.79342e+17 2.21495e+13 0 2.87943e+14 9.30279e+14 0 
513 0 37.9129 5.87825e+17 471.652 159.653 139.147 7450.14 6.7507 -0.755967 5.83728e+17 0 0 1.26252e+15 2.83513e+15 0 
541 0 37.4629 5.80848e+17 191.216 137.371 136.466 7469.95 -1.02717 0.569258 5.80405e+17 0 0 4.4299e+13 3.98691e+14 0 
545 0 37.6829 5.84259e+17 262.674 148.589 137.977 7466.04 0.846919 -0.47287 5.82952e+17 2.21495e+13 0 4.2084e+14 8.6383e+14 0 
549 0 37.7914 5.85943e+17 459.009 162.987 140.489 7451.45 7.83025 0.738699 5.82532e+17 0 0 1.21822e+15 2.17065e+15 2.21495e+13 
577 0 37.39 5.79719e+17 174.816 136.17 136.665 7469.38 0.0161413 -2.14012 5.79541e+17 0 0 2.21495e+13 1.55046e+14 0 
581 0 37.5171 5.8169e+17 227.708 140.802 137.927 7466.6 2.39469 0.878982 5.80715e+17 2.21495e+13 0 4.2084e+14 5.31588e+14 0 
585 0 37.4929 5.81313e+17 395.015 156.79 138.777 7456.83 6.34394 0.278246 5.78589e+17 2.21495e+13 0 7.30933e+14 1.94916e+15 2.21495e+13 
613 0 37.4771 5.8107e+17 194.176 138.922 137.343 7469.1 2.08511 0.382555 5.80693e+17 0 0 8.8598e+13 2.87943e+14 0 
617 0 37.32 5.78633e+17 219.081 143.268 137.236 7468.93 4.35666 -0.869698 5.77769e+17 0 0 1.99345e+14 6.64485e+14 0 
621 0 37.6529 5.83794e+17 336.05 143.677 139.178 7459.51 4.41676 0.199318 5.82133e+17 2.21495e+13 0 6.64485e+14 9.74578e+14 0 
2 0 38.5357 5.97483e+17 341.484 143.487 137.844 7460.4 14.0172 -0.423372 5.95688e+17 0 0 6.42335e+14 1.15177e+15 0 
6 0 40.9986 6.35668e+17 850.76 166.132 142.665 7427.1 28.9398 1.27234 6.27739e+17 0 0 2.39215e+15 5.51522e+15 2.21495e+13 
38 0 37.55 5.82199e+17 334.347 147.84 137.528 7462.07 -1.03385 1.13417 5.80671e+17 0 0 5.31588e+14 9.96727e+14 0 
42 0 37.8757 5.87249e+17 911.65 175.053 147.197 7423.16 2.10407 3.03808 5.79342e+17 4.4299e+13 0 2.90158e+15 4.89504e+15 6.64485e+13 
74 0 37.6686 5.84038e+17 372.642 143.686 138.882 7459.46 0.395168 1.30432 5.81911e+17 0 0 6.86634e+14 1.39542e+15 4.4299e+13 
78 0 38.0043 5.89243e+17 923.425 181.363 143.043 7424.19 0.100935 -0.556679 5.81646e+17 8.8598e+13 0 2.25925e+15 5.22728e+15 2.21495e+13 
110 0 37.4071 5.79984e+17 350.617 141.56 137.978 7461.3 1.14704 1.13996 5.78257e+17 0 0 4.87289e+14 1.24037e+15 0 
114 0 38.0057 5.89265e+17 885.809 169.886 143.309 7426.04 2.82526 1.00131 5.81136e+17 6.64485e+13 0 2.65794e+15 5.40448e+15 0 
146 0 37.5086 5.81557e+17 344.482 142.292 136.572 7461.49 -0.961534 -0.056125 5.80051e+17 2.21495e+13 0 4.87289e+14 9.96727e+14 0 
150 0 37.7057 5.84614e+17 785.8 169.32 143.539 7430.07 3.27542 0.558641 5.77725e+17 0 0 2.0156e+15 4.87289e+15 0 
182 0 37.6157 5.83218e+17 282.809 140.597 137.119 7461.01 -0.0846591 1.74288 5.82066e+17 0 0 4.2084e+14 7.30933e+14 0 
186 0 37.9 5.87626e+17 763.895 174.454 140.76 7431.49 2.87309 2.24313 5.81291e+17 2.21495e+13 0 2.1485e+15 4.14195e+15 2.21495e+13 
218 0 37.7143 5.84747e+17 278.708 142.064 137.13 7464.21 0.586803 0.604707 5.83484e+17 0 0 3.54392e+14 9.08129e+14 0 
222 0 37.99 5.89021e+17 736.371 168.798 142.546 7434.92 5.13097 1.45197 5.8313e+17 2.21495e+13 0 1.81626e+15 4.05336e+15 0 
254 0 37.4614 5.80826e+17 288.648 143.646 137.425 7465.2 1.40124 0.773328 5.7963e+17 0 0 3.98691e+14 7.97382e+14 0 
258 0 37.7357 5.85079e+17 610.818 162.031 140.026 7442.93 2.34461 0.154151 5.79962e+17 0 0 1.72766e+15 3.36672e+15 2.21495e+13 
290 0 37.7 5.84525e+17 294.799 143.089 137.98 7461.66 -0.0248812 -1.39295 5.82975e+17 0 0 3.32242e+14 1.19607e+15 2.21495e+13 
294 0 37.7071 5.84636e+17 703.611 164.55 142.105 7436.29 5.04765 -0.399249 5.80095e+17 2.21495e+13 0 1.68336e+15 2.83513e+15 0 
326 0 37.6671 5.84016e+17 273.404 138.546 137.175 7465.87 1.6311 0.459446 5.82886e+17 0 0 2.43644e+14 8.8598e+14 0 
330 0 37.6757 5.84149e+17 600.231 165.931 141.603 7443.9 1.94093 -0.627285 5.79763e+17 0 0 1.39542e+15 2.99018e+15 0 
362 0 37.6314 5.83462e+17 255.116 142.084 136.914 7465.51 -0.34486 -0.78399 5.82399e+17 0 0 2.65794e+14 7.97382e+14 0 
366 0 37.9343 5.88158e+17 481.57 158.845 139.566 7450.57 3.79665 1.49073 5.84481e+17 0 0 1.17392e+15 2.50289e+15 0 
398 0 37.6957 5.84459e+17 253.564 140.554 137.68 7464.19 3.25001 0.216863 5.83418e+17 0 0 3.76541e+14 6.64485e+14 0 
402 0 37.7843 5.85832e+17 430.989 159.188 138.161 7454.12 2.66928 1.86048 5.82399e+17 0 0 1.15177e+15 2.2814e+15 0 
434 0 37.3214 5.78655e+17 241.829 140.419 137.892 7467.43 -0.00713912 1.50584 5.77836e+17 0 0 2.43644e+14 5.75887e+14 0 
438 0 37.6486 5.83728e+17 386.302 150 139.754 7458.66 3.63982 -0.350293 5.8138e+17 0 0 8.6383e+14 1.48402e+15 0 
470 0 37.56 5.82354e+17 210.155 140.523 136.583 7467.29 0.737453 0.733394 5.81712e+17 0 0 1.99345e+14 4.4299e+14 0 
474 0 37.5229 5.81779e+17 361.595 148.683 136.836 7458.65 2.44676 0.176289 5.79586e+17 2.21495e+13 0 8.19531e+14 1.35112e+15 0 
506 0 37.4257 5.80272e+17 218.821 140.78 136.736 7467.49 2.2013 -0.589314 5.79586e+17 0 0 1.32897e+14 5.53737e+14 0 
510 0 37.5057 5.81513e+17 327.336 150.789 138.676 7459.89 4.69279 -2.20797 5.7963e+17 4.4299e+13 0 6.42335e+14 1.19607e+15 0 
542 0 37.5071 5.81535e+17 217.339 137.925 136.966 7468.74 0.82147 -0.971305 5.80937e+17 0 0 1.77196e+14 4.2084e+14 0 
546 0 37.5914 5.82842e+17 260.186 145.043 137.524 7463.74 -0.315238 -1.09081 5.81579e+17 0 0 4.2084e+14 8.41681e+14 0 
578 0 37.5514 5.82222e+17 188.046 138.911 137.012 7471.2 1.0759 -0.391939 5.81845e+17 2.21495e+13 0 8.8598e+13 2.65794e+14 0 
582 0 37.5243 5.81801e+17 272.157 148.915 138.299 7463.13 2.55606 0.353241 5.7994e+17 0 0 6.86634e+14 1.17392e+15 0 
614 0 37.4871 5.81225e+17 190.543 138.542 137.064 7468.74 0.946901 -0.43478 5.80893e+17 0 0 8.8598e+13 2.43644e+14 0 
618 0 37.36 5.79253e+17 218.57 141.816 137.044 7468.02 3.06878 -1.15206 5.78478e+17 0 0 2.87943e+14 4.87289e+14 0 
3 0 39.12 6.06542e+17 314.582 144.855 137.654 7462.21 18.1844 -0.413924 6.04415e+17 0 0 3.32242e+14 1.79411e+15 0 
7 0 41.7843 6.4785e+17 1242.04 197.611 147.719 7398.81 32.8276 -0.539989 6.35469e+17 6.64485e+13 0 3.83186e+15 8.46111e+15 2.21495e+13 
39 0 37.4829 5.81158e+17 422.214 152.816 139.48 7453.93 1.52586 -0.254703 5.78633e+17 0 0 7.53083e+14 1.77196e+15 0 
43 0 37.9614 5.88578e+17 1250.79 201.493 152.416 7400.1 2.47598 1.08007 5.77836e+17 2.21495e+13 0 3.56607e+15 7.13214e+15 2.21495e+13 
75 0 37.5514 5.82222e+17 436.444 146.001 139.443 7453.28 0.0782427 0.220516 5.79431e+17 0 0 7.97382e+14 1.9713e+15 2.21495e+13 
79 0 38.1057 5.90816e+17 1207.22 186.449 146.117 7405.38 2.35757 0.943159 5.80538e+17 4.4299e+13 0 3.23383e+15 6.99924e+15 0 
111 0 37.7043 5.84592e+17 404.73 144.003 138.627 7456.1 2.08865 -1.26573 5.82089e+17 0 0 7.30933e+14 1.77196e+15 0 
115 0 38.0186 5.89464e+17 1148.95 190.072 148.268 7405.49 4.14831 -1.06068 5.79276e+17 2.21495e+13 0 3.83186e+15 6.33475e+15 0 
147 0 37.4829 5.81158e+17 417.486 150.48 139.075 7455.55 1.6647 0.0797611 5.78456e+17 0 0 8.8598e+14 1.81626e+15 0 
151 0 38.4157 5.95622e+17 1122.86 200.03 144.606 7409.42 4.1892 3.60848 5.8612e+17 2.21495e+13 0 3.54392e+15 5.93606e+15 0 
183 0 37.4514 5.80671e+17 372.097 145.012 138.058 7459.47 -1.27452 -2.17587 5.78434e+17 0 0 5.31588e+14 1.70551e+15 0 
187 0 37.9457 5.88335e+17 966.515 173.385 147.077 7421.44 6.04493 0.565832 5.80339e+17 0 0 2.81299e+15 5.18298e+15 0 
219 0 37.6329 5.83484e+17 343.873 144.055 137.434 7460.49 0.410465 -1.17081 5.81535e+17 0 0 4.87289e+14 1.46187e+15 0 
223 0 37.8743 5.87227e+17 967.516 176.129 143.321 7417.35 6.09525 0.0498813 5.79121e+17 4.4299e+13 0 2.59149e+15 5.36018e+15 1.10747e+14 
255 0 37.5929 5.82864e+17 349.153 142.87 137.419 7460.71 -0.190215 0.859069 5.80915e+17 0 0 4.4299e+14 1.50617e+15 0 
259 0 37.8671 5.87117e+17 898.03 169.972 143.129 7422.94 7.10755 0.853535 5.80184e+17 0 0 2.50289e+15 4.4299e+15 0 
291 0 37.3343 5.78855e+17 344.055 141.127 137.253 7458.71 0.0582821 -0.0255895 5.76839e+17 0 0 4.2084e+14 1.59476e+15 0 
295 0 37.8571 5.86962e+17 786.287 176.019 144.322 7432.89 5.36268 1.14457 5.80627e+17 0 0 2.17065e+15 4.11981e+15 4.4299e+13 
327 0 37.4 5.79874e+17 294.417 140.876 136.955 7463.78 0.175705 1.13099 5.78722e+17 0 0 3.54392e+14 7.97382e+14 0 
331 0 37.6671 5.84016e+17 688.586 161.739 140.481 7437.6 7.35414 -0.537431 5.787e+17 0 0 1.83841e+15 3.43317e+15 4.4299e+13 
363 0 37.5043 5.81491e+17 288.829 143.054 137.923 7464.4 -0.356814 -1.21032 5.79896e+17 0 0 5.53737e+14 1.01888e+15 2.21495e+13 
367 0 37.7671 5.85566e+17 530.885 165.709 142.645 7446.67 3.69065 1.16509 5.81025e+17 0 0 1.39542e+15 3.14523e+15 0 
399 0 37.4543 5.80715e+17 302.642 145.331 137.981 7462.94 1.01095 -0.690649 5.79098e+17 0 0 4.2084e+14 1.19607e+15 0 
403 0 37.35 5.79098e+17 546.206 154.135 140.581 7447.16 5.30818 -1.41528 5.74779e+17 0 0 1.43972e+15 2.81299e+15 6.64485e+13 
435 0 37.6629 5.83949e+17 252.038 139.23 137.213 7464.42 2.18465 -2.90149 5.82864e+17 0 0 3.54392e+14 7.30933e+14 0 
439 0 37.7086 5.84658e+17 493.866 155.762 139.642 7449.71 3.78048 0.541512 5.81269e+17 0 0 1.10747e+15 2.2814e+15 0 
471 0 37.5471 5.82155e+17 223.827 138.491 136.951 7467.44 1.31543 1.47818 5.81114e+17 2.21495e+13 0 3.54392e+14 6.64485e+14 0 
475 0 37.8786 5.87294e+17 427.624 152.072 139.211 7452.77 4.26699 0.970526 5.84149e+17 2.21495e+13 0 1.01888e+15 2.1042e+15 0 
507 0 37.5343 5.81956e+17 229.306 145.854 136.551 7467.86 1.58275 0.438213 5.81114e+17 0 0 2.43644e+14 5.98036e+14 0 
511 0 37.5314 5.81911e+17 361.967 157.112 138.198 7459.54 3.67718 -0.943379 5.79674e+17 0 0 7.30933e+14 1.50617e+15 0 
543 0 37.3471 5.79054e+17 199.488 140.294 136.693 7469.26 0.352996 1.31187 5.78345e+17 2.21495e+13 0 1.55046e+14 5.31588e+14 0 
547 0 37.58 5.82665e+17 338.565 151.693 137.753 7459.28 2.97086 0.334536 5.80339e+17 0 0 7.30933e+14 1.59476e+15 0 
579 0 37.3914 5.79741e+17 205.511 138.822 137.224 7469.14 0.619408 -1.5401 5.79231e+17 2.21495e+13 0 1.32897e+14 3.54392e+14 0 
583 0 37.2371 5.77349e+17 290.633 143.501 137.935 7463.5 2.31728 -1.4603 5.75732e+17 4.4299e+13 0 4.65139e+14 1.10747e+15 0 
615 0 37.3457 5.79032e+17 181.036 138.885 137.526 7469.41 1.12063 0.437351 5.78611e+17 0 0 1.55046e+14 2.43644e+14 2.21495e+13 
619 0 37.5686 5.82487e+17 320.235 148.951 139.322 7460.61 3.90022 -1.22018 5.80671e+17 0 0 5.53737e+14 1.26252e+15 0 
4 0 39.8857 6.18414e+17 515.504 153.05 140.912 7449.12 23.2763 -1.19827 6.1456e+17 0 0 1.15177e+15 2.68009e+15 2.21495e+13 
8 0 42.6357 6.61052e+17 1644.16 224.697 157.054 7373.17 33.4363 -0.194247 6.44661e+17 2.21495e+13 0 6.06896e+15 1.01888e+16 1.10747e+14 
40 0 37.9729 5.88756e+17 517.206 156.33 139.566 7449.27 1.10393 -0.815105 5.85234e+17 0 0 1.06318e+15 2.45859e+15 0 
44 0 38.5586 5.97837e+17 1797.7 220.399 151.736 7363 3.66033 3.13729 5.81491e+17 2.21495e+13 0 6.09111e+15 1.02109e+16 2.21495e+13 
76 0 37.83 5.86541e+17 555.267 161.294 140.816 7445.91 -0.37274 -0.825782 5.82199e+17 2.21495e+13 0 1.41757e+15 2.90158e+15 0 
80 0 38.3671 5.94869e+17 1805.19 216.295 151.996 7366.25 5.34845 1.839 5.79143e+17 1.10747e+14 0 5.82532e+15 9.76793e+15 2.21495e+13 
112 0 37.4586 5.80782e+17 510.819 148.615 138.971 7450.18 2.59741 -0.208623 5.77703e+17 2.21495e+13 0 1.06318e+15 1.99345e+15 0 
116 0 38.5286 5.97372e+17 1648.91 214.011 151.451 7372.99 7.5146 0.960817 5.8231e+17 2.21495e+13 0 5.20513e+15 9.79008e+15 4.4299e+13 
148 0 37.8143 5.86297e+17 451.012 145.919 139.28 7452.75 0.16396 2.18239 5.83019e+17 2.21495e+13 0 8.19531e+14 2.43644e+15 0 
152 0 37.9143 5.87847e+17 1415.27 210.802 146.592 7389.26 7.30316 -1.4223 5.74779e+17 2.21495e+13 0 4.3413e+15 8.66045e+15 4.4299e+13 
184 0 37.8257 5.86474e+17 480 152.825 137.53 7452.74 0.788773 -1.42793 5.83329e+17 0 0 1.01888e+15 2.12635e+15 0 
188 0 38.3657 5.94847e+17 1477.91 207.033 149.836 7383.21 6.77287 5.60553 5.81601e+17 2.21495e+13 0 4.65139e+15 8.52755e+15 4.4299e+13 
220 0 37.7057 5.84614e+17 429.042 148.005 138.353 7457.85 0.53946 -0.155686 5.81934e+17 4.4299e+13 0 8.6383e+14 1.77196e+15 0 
224 0 38.2114 5.92455e+17 1319.92 203.009 146.997 7392.59 8.70402 -0.206826 5.80228e+17 6.64485e+13 0 3.89831e+15 8.19531e+15 6.64485e+13 
256 0 37.6043 5.83041e+17 422.206 152.694 137.131 7455.25 3.16611 -0.243233 5.80494e+17 0 0 7.30933e+14 1.81626e+15 0 
260 0 37.9543 5.88468e+17 1228.12 196.293 146.954 7401.24 12.0107 1.65715 5.7819e+17 4.4299e+13 0 3.49962e+15 6.7113e+15 2.21495e+13 
292 0 37.6143 5.83196e+17 420.318 145.163 138.661 7456.71 0.69896 0.282523 5.80693e+17 0 0 7.30933e+14 1.77196e+15 0 
296 0 38.0771 5.90373e+17 1029.64 199.43 148.206 7413.39 10.4211 -0.54379 5.81934e+17 4.4299e+13 0 2.99018e+15 5.36018e+15 4.4299e+13 
328 0 37.4986 5.81402e+17 356.019 144.409 139.42 7459.04 1.60869 0.734792 5.79342e+17 0 0 4.87289e+14 1.57261e+15 0 
332 0 38.0743 5.90328e+17 856.156 178.751 143.114 7426.34 8.25606 0.0933725 5.83174e+17 2.21495e+13 0 2.2814e+15 4.85074e+15 0 
364 0 37.6829 5.84259e+17 359.437 148.261 137.43 7458.05 1.95096 -0.274687 5.82155e+17 2.21495e+13 0 7.53083e+14 1.32897e+15 0 
368 0 37.7857 5.85854e+17 770.418 177.731 144.595 7430.65 7.01083 1.13224 5.79386e+17 0 0 2.37e+15 4.07551e+15 2.21495e+13 
400 0 37.45 5.80649e+17 306.021 145.247 138.819 7462.08 0.925675 -0.346358 5.79143e+17 0 0 4.87289e+14 1.01888e+15 0 
404 0 38.2329 5.92787e+17 707.928 175.044 139.843 7434.48 11.1269 -0.161592 5.87272e+17 4.4299e+13 0 1.81626e+15 3.65467e+15 0 
436 0 37.52 5.81734e+17 300.773 146.906 137.625 7463.83 1.99327 -0.034451 5.8025e+17 0 0 4.2084e+14 1.06318e+15 0 
440 0 37.3857 5.79652e+17 571.374 162.318 143.335 7444.4 6.01631 1.76029 5.75001e+17 4.4299e+13 0 1.43972e+15 3.16738e+15 0 
472 0 37.8114 5.86253e+17 308.367 143.504 137.83 7462.72 1.55614 -0.0332643 5.84525e+17 0 0 4.65139e+14 1.26252e+15 0 
476 0 37.5771 5.8262e+17 549.312 161.026 138.751 7445.62 5.23514 0.107028 5.78611e+17 0 0 1.46187e+15 2.54719e+15 0 
508 0 37.5229 5.81779e+17 284.769 141.879 137.886 7462.85 1.56456 -0.171106 5.80649e+17 0 0 3.76541e+14 7.53083e+14 0 
512 0 37.5214 5.81756e+17 404.002 170.725 140.038 7455.48 6.88829 -0.556408 5.78744e+17 0 0 9.74578e+14 2.0156e+15 2.21495e+13 
544 0 37.5214 5.81756e+17 244.068 145.917 137.676 7466.69 2.13803 1.10353 5.80782e+17 2.21495e+13 0 2.87943e+14 6.42335e+14 2.21495e+13 
548 0 37.5429 5.82089e+17 427.573 148.213 139.772 7454.53 3.66372 -1.40639 5.78899e+17 2.21495e+13 0 9.96727e+14 2.17065e+15 0 
580 0 37.5429 5.82089e+17 225.015 142.703 136.462 7467.32 0.827788 0.122213 5.81336e+17 0 0 2.87943e+14 4.65139e+14 0 
584 0 37.9471 5.88357e+17 388.207 146.94 138.17 7457.94 5.68745 -1.22695 5.85943e+17 0 0 7.30933e+14 1.66121e+15 2.21495e+13 
616 0 37.4943 5.81336e+17 191.144 141.791 137.992 7470.22 -0.424202 0.571575 5.8076e+17 0 0 2.21495e+14 3.54392e+14 0 
620 0 37.4543 5.80715e+17 320.448 150.212 138.335 7459.59 3.66776 -0.460582 5.78877e+17 0 0 6.86634e+14 1.12962e+15 2.21495e+13 
10 0 44.7129 6.93257e+17 3244.16 313.185 168.92 7260.64 35.272 2.50614 6.56932e+17 4.4299e+13 0 1.23594e+16 2.38329e+16 8.8598e+13 
46 0 39.9114 6.18812e+17 3543.69 360.123 176.519 7239.29 9.46618 0.578852 5.83661e+17 1.32897e+14 0 1.31125e+16 2.17951e+16 1.10747e+14 
82 0 39.9729 6.19765e+17 3548 357.496 172.496 7239.97 12.7629 -2.57415 5.86674e+17 1.77196e+14 0 1.25588e+16 2.02225e+16 1.32897e+14 
118 0 39.3557 6.10196e+17 3693.68 321.927 171.957 7235.78 20.5669 -2.5063 5.77326e+17 1.55046e+14 0 1.25145e+16 2.00231e+16 1.77196e+14 
154 0 39.3357 6.09886e+17 3169.12 333.708 170.08 7264.24 20.7189 3.0157 5.79475e+17 1.32897e+14 0 1.11855e+16 1.90043e+16 8.8598e+13 
190 0 38.9214 6.03463e+17 2832.62 287.994 164.604 7294.26 18.7212 -0.745531 5.78102e+17 1.32897e+14 0 9.47998e+15 1.5704e+16 4.4299e+13 
226 0 38.8057 6.01669e+17 2340.91 308.843 163.033 7324.3 19.8588 -0.0657304 5.80051e+17 4.4299e+13 0 7.86307e+15 1.36219e+16 8.8598e+13 
262 0 38.7243 6.00406e+17 1994.73 254.214 150.125 7348.21 21.5043 -1.32025 5.82509e+17 0 0 6.02466e+15 1.18721e+16 0 
298 0 38.63 5.98944e+17 1813.22 243.026 153.167 7360.69 21.0861 -0.771012 5.8313e+17 6.64485e+13 0 6.13541e+15 9.61288e+15 0 
334 0 38.2814 5.9354e+17 1422.78 213.902 152.107 7387.66 15.8116 -0.534898 5.80494e+17 0 0 4.93934e+15 7.97382e+15 1.32897e+14 
370 0 38.4814 5.96641e+17 1146.73 195.489 149.531 7404.42 15.6614 -1.65315 5.8561e+17 8.8598e+13 0 3.63252e+15 7.28718e+15 2.21495e+13 
406 0 38.0943 5.90638e+17 1022.67 201.948 149.411 7410.93 15.5962 -1.22746 5.80804e+17 4.4299e+13 0 3.58822e+15 6.13541e+15 6.64485e+13 
442 0 37.6114 5.83152e+17 833.855 185.768 142.3 7425.84 12.3263 1.02225 5.76108e+17 2.21495e+13 0 2.34785e+15 4.62924e+15 4.4299e+13 
478 0 37.9257 5.88025e+17 735.228 173.312 143.935 7432.54 10.1637 0.94337 5.82022e+17 4.4299e+13 0 2.2814e+15 3.67682e+15 0 
514 0 37.5929 5.82864e+17 682.468 174.926 143.572 7436.76 11.8984 0.211348 5.77747e+17 2.21495e+13 0 1.74981e+15 3.34457e+15 0 
550 0 37.5029 5.81468e+17 471.409 160.907 142.378 7450.33 4.85097 1.76886 5.7788e+17 2.21495e+13 0 1.17392e+15 2.39215e+15 0 
586 0 37.9171 5.87892e+17 475.679 168.785 140.963 7451.13 6.82898 -1.39614 5.84126e+17 0 0 1.43972e+15 2.2814e+15 4.4299e+13 
622 0 37.5657 5.82443e+17 408.894 163.967 139.495 7455.96 6.09713 0.805618 5.79453e+17 0 0 1.06318e+15 1.92701e+15 0 
11 0 45.7 7.08562e+17 4866.49 414.723 188.869 7138.63 37.2563 -1.53061 6.53122e+17 1.99345e+14 0 2.13743e+16 3.38444e+16 2.21495e+13 
47 0 41.1029 6.37285e+17 5599.56 461.161 195.387 7086.16 13.0366 -0.326942 5.8324e+17 1.99345e+14 0 2.0599e+16 3.31356e+16 1.10747e+14 
83 0 40.9457 6.34849e+17 5213.13 465.038 198.436 7114.97 23.1726 -2.05826 5.84082e+17 8.8598e+13 0 1.9115e+16 3.14523e+16 1.10747e+14 
119 0 40.92 6.3445e+17 4951.93 442.795 189.401 7135.27 29.8224 -0.222825 5.87537e+17 1.77196e+14 0 1.82733e+16 2.8307e+16 1.55046e+14 
155 0 40.6243 6.29865e+17 4551.74 425.249 191.653 7164.92 31.2102 -1.89797 5.85965e+17 1.55046e+14 0 1.65457e+16 2.70667e+16 1.32897e+14 
191 0 40.2086 6.2342e+17 3797.34 364.088 179.689 7218.58 31.4555 -3.13796 5.86496e+17 6.64485e+13 0 1.34004e+16 2.33456e+16 1.10747e+14 
227 0 39.7386 6.16132e+17 3409.45 350.67 172.218 7245.32 34.0929 2.40456 5.82642e+17 1.10747e+14 0 1.27803e+16 2.05104e+16 8.8598e+13 
263 0 39.4543 6.11725e+17 2918.34 331.282 168.173 7280.92 32.6511 2.57162 5.85234e+17 1.10747e+14 0 9.36923e+15 1.69887e+16 2.21495e+13 
299 0 39.06 6.05611e+17 2494.91 286.845 157.767 7314.1 27.9869 1.10388 5.83395e+17 6.64485e+13 0 8.12886e+15 1.38877e+16 1.32897e+14 
335 0 38.4843 5.96685e+17 1957.23 247.56 156.191 7348.99 26.5867 -0.171009 5.78279e+17 1.10747e+14 0 6.5784e+15 1.16728e+16 4.4299e+13 
371 0 38.1057 5.90816e+17 1578.34 224.831 154.859 7375.41 23.1231 -0.759421 5.75621e+17 2.21495e+13 0 5.71457e+15 9.41353e+15 4.4299e+13 
407 0 38.5786 5.98147e+17 1331.41 214.97 149.16 7392.2 21.2786 0.835353 5.86275e+17 2.21495e+13 0 4.49635e+15 7.30933e+15 4.4299e+13 
443 0 37.9686 5.88689e+17 1164.13 218.604 148.733 7403.27 19.4621 0.0955787 5.78589e+17 2.21495e+13 0 3.83186e+15 6.22401e+15 2.21495e+13 
479 0 38.1971 5.92233e+17 914.663 189.295 145.508 7419.09 14.5751 -0.906514 5.84569e+17 2.21495e+13 0 3.03448e+15 4.54065e+15 6.64485e+13 
515 0 37.7 5.84525e+17 701.285 182.19 142.48 7434.84 11.0422 -0.4241 5.78345e+17 2.21495e+13 0 2.3257e+15 3.83186e+15 0 
551 0 37.8714 5.87183e+17 611.405 163.935 142.107 7441.65 10.1878 0.625987 5.81867e+17 2.21495e+13 0 1.74981e+15 3.54392e+15 0 
587 0 37.62 5.83285e+17 520.583 166.372 140.309 7448.03 10.1597 -1.17084 5.79386e+17 0 0 1.63906e+15 2.25925e+15 0 
623 0 37.5586 5.82332e+17 435.495 154.595 140.908 7452.12 9.21707 -0.971251 5.79121e+17 0 0 1.35112e+15 1.83841e+15 2.21495e+13 
12 0 48.2386 7.47922e+17 7299.53 574.294 220.454 6944.35 46.0643 6.54066 6.60476e+17 2.21495e+14 0 3.45975e+16 5.22506e+16 3.76541e+14 
48 0 43.01 6.66855e+17 8176.71 611.651 238.345 6873.2 23.1892 1.85431 5.83484e+17 3.76541e+14 0 3.15409e+16 5.11432e+16 3.10093e+14 
84 0 43.0157 6.66943e+17 8005.18 640.051 234.907 6883.09 34.5558 -0.200357 5.84481e+17 3.76541e+14 0 3.08985e+16 5.10103e+16 1.77196e+14 
120 0 42.2486 6.55049e+17 7348.26 617.749 212.218 6944.44 46.6956 -1.19819 5.83395e+17 1.32897e+14 0 2.81963e+16 4.31251e+16 1.99345e+14 
156 0 41.9371 6.5022e+17 6512.17 560.986 224.646 7002.05 53.9703 -1.0843 5.83883e+17 2.43644e+14 0 2.54498e+16 4.05336e+16 1.10747e+14 
192 0 41.0814 6.36953e+17 5889.57 495.696 202.407 7057.44 58.73 1.30514 5.81048e+17 1.32897e+14 0 2.133e+16 3.43539e+16 8.8598e+13 
228 0 40.9643 6.35137e+17 4730.07 425.172 186.212 7148.86 55.4927 -2.41821 5.90195e+17 1.77196e+14 0 1.64792e+16 2.80191e+16 2.65794e+14 
264 0 40.2171 6.23552e+17 4063.27 393.235 185.96 7195.68 51.8267 2.23161 5.83484e+17 1.77196e+14 0 1.62134e+16 2.36557e+16 2.21495e+13 
300 0 39.64 6.14604e+17 3191.15 336.468 168.707 7257.75 45.6866 -2.64052 5.84304e+17 4.4299e+13 0 1.1562e+16 1.8672e+16 2.21495e+13 
336 0 39.0629 6.05656e+17 2703.3 338.504 168.082 7294.96 40.6052 -0.262858 5.79874e+17 8.8598e+13 0 1.04767e+16 1.51503e+16 6.64485e+13 
372 0 38.8786 6.02798e+17 1958.65 278.303 161.351 7344.63 29.298 2.30224 5.8406e+17 4.4299e+13 0 7.42008e+15 1.12076e+16 6.64485e+13 
408 0 38.3557 5.94692e+17 1666.91 244.91 154.662 7366.65 28.292 2.3424 5.79165e+17 4.4299e+13 0 5.84747e+15 9.56858e+15 6.64485e+13 
13 0 52.7229 8.17449e+17 11085.1 935.032 287.54 6594.98 49.7517 -4.38936 6.7948e+17 3.54392e+14 0 5.73893e+16 7.99818e+16 2.43644e+14 
49 0 47.3643 7.34366e+17 12472.6 974.7 310.537 6467.09 45.5308 -3.27448 5.96929e+17 4.4299e+14 0 5.70128e+16 7.97382e+16 2.43644e+14 
85 0 46.8614 7.2657e+17 11797.8 968.05 293.708 6531.43 62.5834 -5.23365 5.96087e+17 5.75887e+14 0 5.20292e+16 7.76561e+16 2.21495e+14 
121 0 45.8671 7.11154e+17 10807.8 895.501 287.004 6625.63 82.739 0.0774402 5.94957e+17 3.98691e+14 0 4.6824e+16 6.87963e+16 1.77196e+14 
157 0 44.6643 6.92504e+17 9524.24 768.427 255.551 6748.25 89.7428 4.35587 5.93363e+17 2.43644e+14 0 4.00906e+16 5.84525e+16 3.54392e+14 
193 0 43.4229 6.73256e+17 8166.53 715.499 237.701 6863.48 95.9781 -2.05287 5.89597e+17 3.98691e+14 0 3.35343e+16 4.94377e+16 2.87943e+14 
229 0 42.3314 6.56334e+17 6927.82 604.152 214.079 6968.59 88.3254 0.85591 5.8829e+17 3.32242e+14 0 2.70667e+16 4.04671e+16 1.77196e+14 
265 0 41.2143 6.39013e+17 5468.45 503.784 203.066 7080.71 76.1501 -1.78502 5.85411e+17 1.32897e+14 0 2.06212e+16 3.27369e+16 1.10747e+14 
301 0 40.0957 6.2167e+17 4389.84 440.567 192.188 7165.48 67.5864 -1.60647 5.78833e+17 1.32897e+14 0 1.71216e+16 2.55384e+16 4.4299e+13 
337 0 39.9071 6.18746e+17 3494.87 394.059 180.344 7235.38 60.9985 0.656379 5.85322e+17 4.4299e+13 0 1.38877e+16 1.9403e+16 8.8598e+13 
373 0 39.4771 6.12079e+17 2676.33 318.995 166.214 7292.98 47.555 -2.72416 5.8561e+17 6.64485e+13 0 1.00559e+16 1.62799e+16 6.64485e+13 
409 0 38.7086 6.00163e+17 2102.54 288.61 159.127 7337.29 41.1216 -1.23978 5.79674e+17 2.21495e+13 0 7.90737e+15 1.2448e+16 1.10747e+14 
445 0 38.7129 6.00229e+17 1635.9 251.043 156.016 7368.26 32.6424 -1.0525 5.85079e+17 0 0 6.17971e+15 8.94839e+15 2.21495e+13 
481 0 38.7486 6.00783e+17 1353.43 242.19 151.55 7388.58 28.3627 0.542497 5.87582e+17 6.64485e+13 0 4.65139e+15 8.43896e+15 4.4299e+13 
517 0 38.1043 5.90793e+17 1098.11 221.226 153.781 7404.28 24.8751 1.13452 5.80007e+17 2.21495e+13 0 4.4742e+15 6.24616e+15 4.4299e+13 
553 0 37.9771 5.88822e+17 778.426 189.831 145.006 7427.73 14.5995 0.0491349 5.81513e+17 4.4299e+13 0 2.94588e+15 4.31915e+15 0 
589 0 37.7514 5.85322e+17 651.386 179.401 146.438 7434.31 15.3863 -0.529535 5.78988e+17 0 0 2.52504e+15 3.78756e+15 2.21495e+13 
625 0 37.7429 5.8519e+17 563.521 185.247 142.658 7442.99 13.097 -1.976 5.79829e+17 2.21495e+13 0 2.3257e+15 3.01233e+15 0 
444 0 38.1629 5.91702e+17 1357.29 221.546 154.584 7391.79 23.8349 1.86635 5.79121e+17 4.4299e+13 0 4.60709e+15 7.90737e+15 2.21495e+13 
480 0 38.0757 5.9035e+17 1117.17 218.171 149.963 7406.07 20.3149 0.457528 5.79785e+17 2.21495e+13 0 3.56607e+15 6.93279e+15 4.4299e+13 
516 0 37.9614 5.88578e+17 843.412 195.198 147.503 7421.78 19.0746 -0.504471 5.80738e+17 4.4299e+13 0 2.92373e+15 4.87289e+15 0 
552 0 38.25 5.93053e+17 757.663 188.098 143.105 7432.35 13.7595 -3.25355 5.86851e+17 0 0 2.3257e+15 3.85401e+15 2.21495e+13 
588 0 37.7086 5.84658e+17 667.535 179.493 143.791 7437.77 14.4221 1.11605 5.7881e+17 4.4299e+13 0 2.3257e+15 3.47747e+15 0 
624 0 37.8071 5.86186e+17 472.874 160.119 142.267 7450.51 11.3961 -0.735877 5.81889e+17 2.21495e+13 0 1.46187e+15 2.81299e+15 0 