ITEM: TIMESTEP
22000
ITEM: NUMBER OF CELLS
1036
ITEM: BOX BOUNDS oo ao pp
-10 10
0 10
-0.5 0.5
ITEM: CELLS id proc f_avg_n f_avg_nrho f_avg_temp_tra f_avg_temp_rot f_avg_temp_vib f_avg_vel[1] f_avg_vel[2] f_avg_vel[3] f_avg_nrho_CO2 f_avg_nrho_O2 f_avg_nrho_C2 f_avg_nrho_CO f_avg_nrho_O f_avg_nrho_C 
1 0 37.8644 5.87075e+17 238.991 140.681 137.02 7465.71 7.11406 -0.458623 5.86282e+17 0 0 1.37819e+14 6.54641e+14 0 
5 0 40.2367 6.23855e+17 610.908 169.491 140.816 7440.35 29.9243 -0.28959 6.18153e+17 1.72274e+13 0 1.8261e+15 3.85893e+15 0 
9 0 43.1389 6.68853e+17 2149.02 258.698 154.823 7337.99 35.7111 1.08431 6.46664e+17 1.72274e+13 0 8.09687e+15 1.40403e+16 3.44548e+13 
37 0 37.4933 5.81321e+17 293.398 142.191 137.236 7465.49 0.727931 -0.0260753 5.80046e+17 0 0 3.44548e+14 9.30279e+14 0 
41 0 37.7333 5.85042e+17 647.767 164.294 141.058 7441.6 -0.301379 1.46062 5.79943e+17 3.44548e+13 0 1.48155e+15 3.5833e+15 0 
45 0 38.5722 5.98049e+17 2504.81 268.433 161.479 7315.91 6.75366 -2.26953 5.76153e+17 2.41183e+14 0 7.40777e+15 1.41781e+16 6.89095e+13 
73 0 37.4156 5.80115e+17 267.655 138.815 136.522 7466.73 0.807932 0.888981 5.79202e+17 0 0 2.58411e+14 6.54641e+14 0 
77 0 37.6811 5.84232e+17 730.397 171.147 141.012 7435.53 2.06505 0.72553 5.78599e+17 0 0 1.72274e+15 3.89339e+15 1.72274e+13 
81 0 38.8267 6.01994e+17 2386.7 259.076 164.497 7322.44 7.19378 1.22138 5.79167e+17 5.16821e+13 0 8.14855e+15 1.4626e+16 0 
109 0 37.6833 5.84267e+17 262.083 141.649 137.653 7465.43 0.059659 -0.6642 5.83319e+17 0 0 3.10093e+14 6.37413e+14 0 
113 0 37.6167 5.83233e+17 641.521 167.986 140.351 7440.31 2.99485 -0.558578 5.7853e+17 1.72274e+13 0 1.51601e+15 3.15261e+15 1.72274e+13 
117 0 39.1322 6.06731e+17 2207.9 251.994 156.361 7333.6 9.96078 -1.39165 5.85903e+17 6.89095e+13 0 7.13214e+15 1.35063e+16 1.20592e+14 
145 0 37.48 5.81114e+17 274.041 141.566 138.44 7465.07 -0.735676 1.71984 5.80132e+17 0 0 3.10093e+14 6.71868e+14 0 
149 0 37.75 5.853e+17 614.577 167.094 140.263 7442.58 1.33205 -1.26324 5.80528e+17 0 0 1.51601e+15 3.23875e+15 1.72274e+13 
153 0 38.7878 6.01391e+17 2080.47 277.146 158.639 7343.09 11.1974 3.11466 5.82303e+17 5.16821e+13 0 7.2355e+15 1.17835e+16 1.72274e+13 
181 0 37.3489 5.79081e+17 266.061 138.01 136.159 7465.97 1.73842 1.35759 5.78065e+17 0 0 1.89501e+14 8.26914e+14 0 
185 0 37.7189 5.84818e+17 616.884 156.298 140.292 7441.96 1.05518 -0.562529 5.80563e+17 0 0 1.34374e+15 2.8942e+15 1.72274e+13 
189 0 38.5422 5.97583e+17 1891.39 230.967 154.039 7356.88 12.3957 -3.27305 5.80752e+17 8.61369e+13 0 5.58167e+15 1.11461e+16 1.72274e+13 
217 0 37.32 5.78633e+17 226.669 138.755 136.841 7467.08 0.123536 -1.02225 5.7791e+17 0 0 1.89501e+14 5.34049e+14 0 
221 0 37.6033 5.83026e+17 561.183 159.844 140.399 7447.39 2.87478 0.0335457 5.79219e+17 0 0 1.34374e+15 2.42906e+15 3.44548e+13 
225 0 38.6011 5.98496e+17 1801.84 253.093 152.866 7360.88 15.8756 1.66951 5.81907e+17 8.61369e+13 0 6.33968e+15 1.01469e+16 1.72274e+13 
253 0 37.5678 5.82475e+17 235.44 139.574 137.545 7466.21 0.993 -0.259133 5.81717e+17 0 0 1.89501e+14 5.68504e+14 0 
257 0 37.7 5.84525e+17 547.699 159.089 138.217 7447.44 1.88192 -0.788923 5.8058e+17 0 0 7.9246e+14 3.13538e+15 1.72274e+13 
261 0 38.1422 5.91382e+17 1503.93 239.217 149.769 7382.49 13.2665 -0.890908 5.77617e+17 3.44548e+13 0 4.97871e+15 8.73428e+15 1.72274e+13 
289 0 37.3511 5.79116e+17 247.086 139.433 137.091 7467.44 0.773161 0.922906 5.78254e+17 0 0 1.89501e+14 6.71868e+14 0 
293 0 37.7189 5.84818e+17 526.439 158.121 141.216 7448.89 1.1835 -0.402518 5.81097e+17 1.72274e+13 0 1.2576e+15 2.44629e+15 0 
297 0 38.0189 5.89469e+17 1322.78 224.234 149.178 7392.47 12.6465 0.39766 5.76876e+17 8.61369e+13 0 4.68585e+15 7.78678e+15 3.44548e+13 
325 0 37.4156 5.80115e+17 228.907 138.856 135.84 7467.98 0.990434 0.715109 5.79391e+17 0 0 1.72274e+14 5.51276e+14 0 
329 0 37.6111 5.83147e+17 471.878 161.25 140.279 7451.52 2.17016 0.54603 5.79822e+17 1.72274e+13 0 1.22314e+15 2.06729e+15 1.72274e+13 
333 0 38.2933 5.93724e+17 1133.28 205.431 147.022 7406.47 12.9872 1.00227 5.83354e+17 5.16821e+13 0 3.66943e+15 6.63254e+15 1.72274e+13 
361 0 37.4567 5.80752e+17 206.911 137.285 136.624 7469.26 -1.20946 0.613219 5.80184e+17 0 0 8.61369e+13 4.82367e+14 0 
365 0 37.4178 5.80149e+17 420.733 154.203 138.543 7456.88 3.29508 -0.616476 5.77393e+17 0 0 1.10255e+15 1.65383e+15 0 
369 0 37.8878 5.87436e+17 982.441 194.284 145.325 7417.67 11.9978 -1.12203 5.78874e+17 1.72274e+13 0 3.13538e+15 5.4094e+15 0 
397 0 37.4089 5.80011e+17 201.579 138.007 136.617 7468.92 -0.231179 -1.86868 5.79512e+17 0 0 1.03364e+14 3.9623e+14 0 
401 0 37.5089 5.81562e+17 396.242 148.231 139.627 7456.09 3.3136 0.520901 5.79357e+17 1.72274e+13 0 7.40777e+14 1.4471e+15 0 
405 0 37.7622 5.8549e+17 823.913 180.827 142.157 7428.42 9.97489 -0.759524 5.78719e+17 5.16821e+13 0 2.2051e+15 4.49635e+15 1.72274e+13 
433 0 37.4922 5.81304e+17 229.969 140.544 137.621 7469.3 1.25694 0.730059 5.80666e+17 0 0 2.58411e+14 3.79002e+14 0 
437 0 37.3856 5.7965e+17 305.735 146.069 137.961 7462.35 1.94877 0.237248 5.77893e+17 0 0 4.30685e+14 1.32651e+15 0 
441 0 37.95 5.88401e+17 683.177 169.533 141.898 7435.91 9.42751 -1.76237 5.82906e+17 3.44548e+13 0 1.77442e+15 3.66943e+15 1.72274e+13 
469 0 37.5033 5.81476e+17 193.513 136.801 136.651 7468.49 -1.27127 1.68524 5.81011e+17 0 0 1.03364e+14 3.61775e+14 0 
473 0 37.3522 5.79133e+17 340.148 148.449 137.909 7460.24 2.29911 0.254808 5.77255e+17 0 0 5.68504e+14 1.30928e+15 0 
477 0 37.8133 5.86282e+17 633.367 175.294 139.998 7437.98 8.53277 1.19657 5.80959e+17 1.72274e+13 0 1.96392e+15 3.32488e+15 1.72274e+13 
505 0 37.4844 5.81183e+17 206.529 140.799 136.8 7468.23 0.44128 -0.649666 5.80649e+17 0 0 2.06729e+14 3.2732e+14 0 
509 0 37.5778 5.8263e+17 297.535 143.142 137.499 7461.2 1.08404 -0.866182 5.81321e+17 1.72274e+13 0 3.2732e+14 9.64733e+14 0 
513 0 37.9544 5.8847e+17 491.037 165.113 139.206 7449.07 7.25959 -0.801771 5.84215e+17 0 0 1.36096e+15 2.8942e+15 0 
541 0 37.5278 5.81855e+17 189.065 137.718 136.749 7469.75 -1.53757 0.69839 5.81424e+17 0 0 5.16821e+13 3.79002e+14 0 
545 0 37.6144 5.83199e+17 259.714 146.767 138.065 7466.21 1.01851 0.117927 5.81907e+17 1.72274e+13 0 3.44548e+14 9.30279e+14 0 
549 0 37.8056 5.86162e+17 450.314 159.762 139.982 7452.11 6.97858 -0.604986 5.83009e+17 0 0 1.10255e+15 2.03283e+15 1.72274e+13 
577 0 37.4944 5.81338e+17 173.854 136.304 136.562 7469.72 -0.10892 -1.80028 5.81183e+17 0 0 1.72274e+13 1.37819e+14 0 
581 0 37.4633 5.80856e+17 233.566 140.394 137.551 7466.67 1.66328 0.476969 5.79822e+17 1.72274e+13 0 4.13457e+14 6.02958e+14 0 
585 0 37.5044 5.81493e+17 387.036 153.325 138.188 7457.09 6.13366 0.328851 5.78857e+17 1.72274e+13 0 6.89095e+14 1.91224e+15 1.72274e+13 
613 0 37.3722 5.79443e+17 185.196 138.756 136.997 7469.74 1.17196 -0.181001 5.79116e+17 0 0 6.89095e+13 2.58411e+14 0 
617 0 37.29 5.78168e+17 214.371 142.302 137.031 7468.49 3.55865 -0.666756 5.77376e+17 0 0 2.06729e+14 5.85731e+14 0 
621 0 37.6289 5.83423e+17 324.203 146.585 138.71 7460.6 3.56984 -0.151907 5.81665e+17 1.72274e+13 0 6.71868e+14 1.0681e+15 0 
2 0 38.4533 5.96205e+17 343.77 143.286 137.972 7460.93 13.9596 -0.474701 5.94448e+17 0 0 6.20186e+14 1.13701e+15 0 
6 0 40.8856 6.33916e+17 825.962 169.611 142.637 7429.72 29.8998 0.890377 6.26525e+17 0 0 2.36015e+15 5.01317e+15 1.72274e+13 
38 0 37.5011 5.81441e+17 366.013 148.54 137.311 7460 -0.844683 1.52178 5.79753e+17 0 0 6.02958e+14 1.08533e+15 0 
42 0 37.98 5.88866e+17 969.47 176.748 146.349 7420.24 1.63691 2.93533 5.80649e+17 3.44548e+13 0 3.01479e+15 5.11653e+15 5.16821e+13 
74 0 37.6533 5.83802e+17 348.932 142.856 138.717 7460.37 -0.498652 0.857108 5.81907e+17 0 0 5.68504e+14 1.29205e+15 3.44548e+13 
78 0 37.9689 5.88694e+17 901.1 181.696 143.289 7425 -0.444496 -0.685816 5.80993e+17 1.20592e+14 0 2.2051e+15 5.35772e+15 1.72274e+13 
110 0 37.5267 5.81838e+17 347.513 143.527 137.828 7461.58 1.18738 1.01796 5.80201e+17 0 0 5.16821e+14 1.11978e+15 0 
114 0 38.0044 5.89245e+17 871.908 173.378 142.372 7426.31 3.67788 1.1975 5.81269e+17 5.16821e+13 0 2.61856e+15 5.28881e+15 1.72274e+13 
146 0 37.5589 5.82337e+17 344.576 146.143 136.488 7461.08 -0.93746 -0.126812 5.80649e+17 1.72274e+13 0 5.51276e+14 1.11978e+15 0 
150 0 37.7722 5.85645e+17 817.11 169.019 142.875 7428.36 2.36665 0.196173 5.78582e+17 0 0 2.05006e+15 5.01317e+15 0 
182 0 37.6867 5.84318e+17 282.355 141.171 137.62 7461.73 -0.0821368 1.25293 5.83078e+17 0 0 3.9623e+14 8.44142e+14 0 
186 0 37.8511 5.86868e+17 792.458 174.18 140.865 7430.23 3.79359 2.88171 5.80425e+17 1.72274e+13 0 2.23956e+15 4.16903e+15 1.72274e+13 
218 0 37.6622 5.83939e+17 270.945 141.651 137.14 7465.05 0.523568 0.439004 5.82699e+17 0 0 3.61775e+14 8.78596e+14 0 
222 0 38.0944 5.90641e+17 711.73 168.424 142.775 7436.52 4.07124 1.83991 5.84766e+17 3.44548e+13 0 1.91224e+15 3.91062e+15 1.72274e+13 
254 0 37.4511 5.80666e+17 272.693 142.763 137.592 7465.58 1.23148 0.757608 5.79598e+17 0 0 3.61775e+14 7.06323e+14 0 
258 0 37.7622 5.8549e+17 634.738 168.024 141.272 7441.04 3.37987 -0.514804 5.8027e+17 0 0 1.84333e+15 3.34211e+15 3.44548e+13 
290 0 37.6778 5.84181e+17 287.398 143.423 138.235 7462.17 0.193498 -2.16741 5.82647e+17 0 0 3.79002e+14 1.13701e+15 1.72274e+13 
294 0 37.7489 5.85283e+17 665.891 168.804 142.038 7439.57 4.00935 -0.369406 5.80769e+17 1.72274e+13 0 1.58492e+15 2.91143e+15 0 
326 0 37.6611 5.83922e+17 276.624 138.917 137.883 7466.71 1.79248 0.251573 5.82785e+17 0 0 2.75638e+14 8.61369e+14 0 
330 0 37.6611 5.83922e+17 622.068 163.949 141.121 7442.85 2.8301 -0.626439 5.79495e+17 0 0 1.42987e+15 2.99756e+15 0 
362 0 37.5633 5.82406e+17 272.729 143.216 136.9 7464.58 0.458425 0.120125 5.81252e+17 0 0 2.92865e+14 8.61369e+14 0 
366 0 37.8178 5.86351e+17 469.858 154.586 139.476 7451.15 3.73009 1.18527 5.82699e+17 0 0 1.08533e+15 2.56688e+15 0 
398 0 37.6933 5.84422e+17 239.528 140.05 137.277 7465.24 2.41574 0.494182 5.83526e+17 0 0 3.44548e+14 5.51276e+14 0 
402 0 37.7267 5.84939e+17 416.897 156.354 138.341 7455.5 2.45102 1.39067 5.81751e+17 0 0 9.99188e+14 2.18788e+15 0 
434 0 37.3856 5.7965e+17 241.34 139.883 137.602 7466.68 -0.0809637 1.59599 5.78857e+17 0 0 2.06729e+14 5.85731e+14 0 
438 0 37.6511 5.83767e+17 390.784 151.465 139.224 7457.9 3.40582 0.245006 5.81441e+17 0 0 8.61369e+14 1.46433e+15 0 
470 0 37.4489 5.80632e+17 216.865 139.907 136.949 7467.42 0.679363 0.754912 5.79925e+17 0 0 2.06729e+14 4.99594e+14 0 
474 0 37.6033 5.83026e+17 367.036 147.748 136.947 7459.35 2.35647 0.198177 5.80907e+17 1.72274e+13 0 7.9246e+14 1.30928e+15 0 
506 0 37.4756 5.81045e+17 211.916 141.678 136.779 7467.6 1.83782 -0.0120171 5.80304e+17 0 0 1.55046e+14 5.85731e+14 0 
510 0 37.4389 5.80477e+17 349.422 150.493 138.72 7458.53 3.96057 -1.1696 5.78461e+17 3.44548e+13 0 6.02958e+14 1.36096e+15 1.72274e+13 
542 0 37.49 5.81269e+17 205.394 138.778 136.59 7469.78 -0.0294616 -1.13298 5.80769e+17 0 0 1.72274e+14 3.2732e+14 0 
546 0 37.5489 5.82182e+17 268.313 147.336 137.641 7463.43 0.833585 -1.19707 5.80769e+17 0 0 5.68504e+14 8.44142e+14 0 
578 0 37.46 5.80804e+17 180.395 138.101 136.588 7471.48 0.656636 -0.384301 5.80494e+17 1.72274e+13 0 8.61369e+13 2.06729e+14 0 
582 0 37.4722 5.80993e+17 267.75 147.02 138.091 7464.13 2.07626 0.65097 5.79202e+17 0 0 6.20186e+14 1.17146e+15 0 
614 0 37.5789 5.82647e+17 191.014 138.448 136.969 7469.19 1.06323 -0.71953 5.8232e+17 0 0 6.89095e+13 2.58411e+14 0 
618 0 37.3789 5.79546e+17 221.289 143.463 137.1 7467.93 3.09262 -1.00275 5.78702e+17 0 0 3.2732e+14 5.16821e+14 0 
3 0 39.1033 6.06283e+17 314.727 146.035 137.856 7462.02 18.1348 0.30257 6.04199e+17 0 0 4.82367e+14 1.60215e+15 0 
7 0 41.7222 6.46888e+17 1128.87 189.789 146.019 7407.1 31.9747 0.727932 6.35587e+17 5.16821e+13 0 3.42825e+15 7.804e+15 1.72274e+13 
39 0 37.5167 5.81683e+17 405.739 156.302 139.46 7455.7 1.75154 -0.892401 5.79202e+17 0 0 7.9246e+14 1.68828e+15 0 
43 0 37.9478 5.88367e+17 1257.61 201.645 150.835 7399.94 1.49494 1.08617 5.77462e+17 1.72274e+13 0 3.66943e+15 7.20105e+15 1.72274e+13 
75 0 37.6189 5.83267e+17 424.66 147.227 139.064 7453.97 -0.433109 0.144266 5.80494e+17 0 0 8.61369e+14 1.89501e+15 1.72274e+13 
79 0 38.0989 5.9071e+17 1215.05 193.208 146.065 7404.79 2.76366 0.549508 5.8008e+17 3.44548e+13 0 3.47993e+15 7.08045e+15 3.44548e+13 
111 0 37.6 5.82975e+17 407.649 144.484 138.704 7455.15 1.73623 -1.27593 5.80477e+17 0 0 8.09687e+14 1.68828e+15 0 
115 0 38.0467 5.899e+17 1122.1 187.091 147.122 7407.31 4.1551 -0.886842 5.79908e+17 3.44548e+13 0 3.68666e+15 6.27077e+15 0 
147 0 37.4744 5.81028e+17 421.934 153.18 139.592 7455.62 1.47181 0.442891 5.78272e+17 0 0 9.64733e+14 1.79165e+15 0 
151 0 38.3678 5.94879e+17 1098.76 200.548 144.516 7411.55 3.61917 2.10971 5.85576e+17 1.72274e+13 0 3.39379e+15 5.89176e+15 0 
183 0 37.4789 5.81097e+17 391.926 147.482 138.486 7457.56 -0.978131 -2.30368 5.78633e+17 0 0 6.20186e+14 1.84333e+15 0 
187 0 37.8667 5.87109e+17 981.09 178.327 146.374 7419.77 5.23109 -0.0858981 5.78961e+17 0 0 2.99756e+15 5.15099e+15 0 
219 0 37.5678 5.82475e+17 365.043 144.584 137.312 7459.31 0.355679 -0.816301 5.80322e+17 0 0 5.34049e+14 1.61937e+15 0 
223 0 37.8667 5.87109e+17 956.266 182.833 143.577 7418.19 6.84207 0.472514 5.78857e+17 3.44548e+13 0 2.82529e+15 5.30603e+15 8.61369e+13 
255 0 37.5733 5.82561e+17 344.198 143.144 137.615 7460.62 0.213665 1.50365 5.80632e+17 0 0 4.30685e+14 1.49878e+15 0 
259 0 37.8178 5.86351e+17 890.742 174.658 143.466 7423.74 7.15651 0.667332 5.79374e+17 0 0 2.5152e+15 4.44466e+15 1.72274e+13 
291 0 37.4567 5.80752e+17 322.849 141.952 137.29 7460.54 0.800905 -0.0291598 5.78961e+17 0 0 4.30685e+14 1.36096e+15 0 
295 0 37.9856 5.88953e+17 777.302 178.918 145.766 7432.08 5.19216 1.12612 5.82492e+17 0 0 2.18788e+15 4.23794e+15 3.44548e+13 
327 0 37.4789 5.81097e+17 284.497 140.943 137.202 7464.21 0.595143 0.645834 5.79925e+17 0 0 3.44548e+14 8.26914e+14 0 
331 0 37.7544 5.85369e+17 700.508 168.017 140.136 7436.46 6.90087 -0.344871 5.80011e+17 0 0 1.92947e+15 3.39379e+15 3.44548e+13 
363 0 37.4767 5.81062e+17 295.298 142.74 138.203 7463.73 0.859085 -1.04986 5.79512e+17 0 0 5.68504e+14 9.64733e+14 1.72274e+13 
367 0 37.8456 5.86782e+17 551.893 168.508 143.145 7445.09 4.2047 0.762731 5.82113e+17 0 0 1.42987e+15 3.23875e+15 0 
399 0 37.4767 5.81062e+17 309.113 145.74 138.281 7462.96 0.745623 -1.02166 5.79495e+17 0 0 4.47912e+14 1.11978e+15 0 
403 0 37.3956 5.79805e+17 530.113 160.549 140.291 7447.16 5.76845 -1.03119 5.75636e+17 0 0 1.46433e+15 2.65302e+15 5.16821e+13 
435 0 37.6511 5.83767e+17 266.982 139.74 137.225 7464.02 2.33194 -2.72609 5.82613e+17 0 0 3.61775e+14 7.9246e+14 0 
439 0 37.7911 5.85938e+17 479.113 154.603 139.478 7451.44 3.82359 0.237346 5.82561e+17 0 0 1.13701e+15 2.23956e+15 0 
471 0 37.4967 5.81372e+17 234.885 139.933 136.548 7466.64 1.44773 1.33797 5.80356e+17 1.72274e+13 0 3.9623e+14 6.02958e+14 0 
475 0 37.7644 5.85524e+17 400.807 150.9 139.294 7454.46 3.69358 0.874182 5.82647e+17 1.72274e+13 0 9.30279e+14 1.92947e+15 0 
507 0 37.5422 5.82079e+17 224.129 144.183 136.446 7467.74 1.15886 -0.28199 5.81286e+17 0 0 2.41183e+14 5.51276e+14 0 
511 0 37.5678 5.82475e+17 360.027 157.594 138.238 7459.79 3.0103 -0.275508 5.80218e+17 0 0 7.06323e+14 1.55046e+15 0 
543 0 37.3556 5.79185e+17 200.273 140.979 136.593 7469.1 0.235567 0.49968 5.78513e+17 1.72274e+13 0 1.89501e+14 4.65139e+14 0 
547 0 37.6267 5.83388e+17 342.446 152.292 138.182 7458.99 2.18986 0.799782 5.81011e+17 0 0 7.75232e+14 1.60215e+15 0 
579 0 37.3378 5.78909e+17 197.751 140.529 137.73 7469.36 0.788665 -1.16702 5.78444e+17 1.72274e+13 0 1.20592e+14 3.2732e+14 0 
583 0 37.4389 5.80477e+17 305.35 146.148 138.237 7462.48 2.21227 -1.33457 5.78685e+17 3.44548e+13 0 6.20186e+14 1.13701e+15 0 
615 0 37.32 5.78633e+17 195.892 140.193 137.317 7469.35 1.18218 -0.234638 5.78116e+17 0 0 1.89501e+14 3.10093e+14 1.72274e+13 
619 0 37.4189 5.80167e+17 310.212 148.427 139.478 7461.34 3.47564 -1.08121 5.78358e+17 0 0 6.20186e+14 1.18869e+15 0 
4 0 39.8856 6.18411e+17 524.427 154.485 140.071 7448.24 23.3796 -1.25477 6.14621e+17 0 0 1.27483e+15 2.49797e+15 1.72274e+13 
8 0 42.4656 6.58413e+17 1637.42 223.072 154.445 7374.78 32.7102 0.190762 6.4222e+17 1.72274e+13 0 6.01236e+15 1.0078e+16 8.61369e+13 
40 0 37.8667 5.87109e+17 496.123 152.562 138.664 7450.63 1.22644 -0.770178 5.83715e+17 0 0 1.05087e+15 2.34292e+15 0 
44 0 38.6456 5.99186e+17 1802.27 224.641 150.505 7363.32 3.08746 2.35192 5.82751e+17 1.72274e+13 0 6.02958e+15 1.03709e+16 1.72274e+13 
76 0 37.7678 5.85576e+17 516.783 160.342 140.084 7447.54 -0.622525 -0.212886 5.81614e+17 1.72274e+13 0 1.20592e+15 2.72193e+15 1.72274e+13 
80 0 38.3089 5.93966e+17 1754.97 215.125 152.308 7368.79 6.13653 1.21358 5.78513e+17 8.61369e+13 0 5.7884e+15 9.5612e+15 1.72274e+13 
112 0 37.5256 5.8182e+17 503.718 149.178 139.048 7451.32 1.44284 0.12667 5.78685e+17 1.72274e+13 0 1.08533e+15 2.03283e+15 0 
116 0 38.5356 5.9748e+17 1660.17 220.42 151.022 7372.67 7.815 1.34734 5.82509e+17 1.72274e+13 0 5.11653e+15 9.76793e+15 6.89095e+13 
148 0 37.6956 5.84456e+17 474.11 146.147 138.968 7452.12 0.748079 1.681 5.81217e+17 1.72274e+13 0 7.9246e+14 2.42906e+15 0 
152 0 38.0633 5.90158e+17 1507.65 221.69 148.083 7382.93 8.39387 -1.2291 5.76566e+17 1.72274e+13 0 4.66862e+15 8.85487e+15 5.16821e+13 
184 0 37.8122 5.86265e+17 473.14 153.199 138.094 7452.86 1.55635 -1.14808 5.83009e+17 0 0 9.81961e+14 2.27401e+15 0 
188 0 38.2667 5.93311e+17 1471.94 207.841 149.621 7384.37 7.9848 3.93571 5.80339e+17 1.72274e+13 0 4.54803e+15 8.37251e+15 3.44548e+13 
220 0 37.7511 5.85318e+17 411.367 150.74 139.347 7457.5 0.954995 -0.585534 5.82785e+17 3.44548e+13 0 8.26914e+14 1.65383e+15 1.72274e+13 
224 0 38.2389 5.9288e+17 1302.08 198.896 148.063 7395 8.29963 -0.588091 5.81097e+17 5.16821e+13 0 3.84171e+15 7.82123e+15 6.89095e+13 
256 0 37.5889 5.82802e+17 418.857 156.898 137.481 7454.96 3.04999 0.269951 5.80218e+17 0 0 7.9246e+14 1.79165e+15 0 
260 0 37.9833 5.88918e+17 1167.03 195.635 147.278 7404.51 11.2315 1.72683 5.78909e+17 5.16821e+13 0 3.4627e+15 6.4775e+15 1.72274e+13 
292 0 37.5956 5.82906e+17 411.228 144.49 138.594 7456.94 0.853678 0.582178 5.80425e+17 0 0 7.40777e+14 1.73997e+15 0 
296 0 38.0744 5.90331e+17 1050.29 195.286 147.637 7411.99 10.889 -1.40944 5.81803e+17 5.16821e+13 0 3.11816e+15 5.32326e+15 3.44548e+13 
328 0 37.56 5.82354e+17 336.047 144.468 138.602 7460.49 1.33866 0.86391 5.80373e+17 0 0 4.65139e+14 1.51601e+15 0 
332 0 37.9211 5.87953e+17 897.921 181.614 144.512 7423.67 9.39273 0.313244 5.80304e+17 1.72274e+13 0 2.58411e+15 5.04762e+15 0 
364 0 37.67 5.8406e+17 322.696 147.299 137.262 7460.3 1.6785 -0.00751002 5.82303e+17 1.72274e+13 0 6.02958e+14 1.13701e+15 0 
368 0 37.8722 5.87195e+17 763.637 175.078 143.914 7431.89 6.27039 1.33545 5.8089e+17 0 0 2.23956e+15 4.04843e+15 1.72274e+13 
400 0 37.4789 5.81097e+17 304.055 143.952 138.596 7462.07 1.24442 0.155223 5.7946e+17 0 0 4.65139e+14 1.17146e+15 0 
404 0 38.1622 5.91692e+17 731.587 175.782 140.222 7434.16 9.69965 -0.555928 5.86213e+17 3.44548e+13 0 1.79165e+15 3.6522e+15 0 
436 0 37.57 5.82509e+17 295.885 147.594 137.783 7463.68 2.03074 -0.277945 5.81045e+17 0 0 3.9623e+14 1.0681e+15 0 
440 0 37.6011 5.82992e+17 570.954 163.691 142.456 7443.83 6.31807 1.89482 5.7822e+17 3.44548e+13 0 1.55046e+15 3.18707e+15 0 
472 0 37.86 5.87006e+17 287.796 143.72 138.117 7463.97 1.50292 -0.735967 5.85473e+17 0 0 4.65139e+14 1.0681e+15 0 
476 0 37.4533 5.80701e+17 542.19 160.8 139.633 7446.28 5.0004 0.335418 5.76824e+17 0 0 1.36096e+15 2.5152e+15 0 
508 0 37.5067 5.81528e+17 266.577 142.617 137.905 7464.23 1.75892 -0.00311598 5.80408e+17 0 0 3.44548e+14 7.75232e+14 0 
512 0 37.5589 5.82337e+17 412.235 170.31 140.051 7454.31 6.54347 0.281094 5.79253e+17 0 0 1.0681e+15 1.99838e+15 1.72274e+13 
544 0 37.5133 5.81631e+17 237.666 145.546 138.036 7467.06 1.89506 0.40176 5.80701e+17 1.72274e+13 0 2.58411e+14 6.37413e+14 1.72274e+13 
548 0 37.4978 5.8139e+17 416.433 148.828 138.878 7455.55 3.08565 -1.2638 5.78323e+17 1.72274e+13 0 8.78596e+14 2.17065e+15 0 
580 0 37.56 5.82354e+17 225.539 142.383 136.899 7468.48 0.766619 0.754839 5.81562e+17 0 0 2.75638e+14 5.16821e+14 0 
584 0 37.8456 5.86782e+17 382.253 146.144 137.916 7458.19 5.93581 -1.02933 5.84404e+17 0 0 7.40777e+14 1.61937e+15 1.72274e+13 
616 0 37.5422 5.82079e+17 197.287 142.081 137.701 7469.23 0.515459 -0.425619 5.8139e+17 0 0 2.41183e+14 4.47912e+14 0 
620 0 37.5389 5.82027e+17 329.852 151.211 138.172 7458.77 4.27231 -0.792258 5.80184e+17 0 0 6.71868e+14 1.15423e+15 1.72274e+13 
10 0 44.6611 6.92455e+17 3293.95 322.83 166.47 7258.66 35.4617 2.76541 6.57138e+17 3.44548e+13 0 1.27999e+16 2.24128e+16 6.89095e+13 
46 0 40.0011 6.20203e+17 3619.39 350.45 175.099 7233.83 7.85482 0.0763424 5.84491e+17 1.20592e+14 0 1.35407e+16 2.19649e+16 8.61369e+13 
82 0 39.9656 6.19652e+17 3474.63 349.17 173.211 7243.31 11.1446 -2.59492 5.86523e+17 1.37819e+14 0 1.27138e+16 2.01044e+16 1.72274e+14 
118 0 39.3044 6.09401e+17 3638.3 315.153 172.113 7238.5 19.8704 -1.1695 5.76928e+17 1.20592e+14 0 1.24382e+16 1.97598e+16 1.55046e+14 
154 0 39.28 6.09022e+17 3182.36 332.003 170.142 7263.67 19.958 1.32935 5.79477e+17 1.03364e+14 0 1.09738e+16 1.83988e+16 6.89095e+13 
190 0 38.9044 6.032e+17 2833.07 289.701 163.848 7293.52 19.8838 -0.167728 5.77651e+17 1.20592e+14 0 9.40615e+15 1.5987e+16 3.44548e+13 
226 0 38.9322 6.0363e+17 2363.17 299.25 161.531 7323.03 20.5695 -0.604604 5.81614e+17 3.44548e+13 0 8.02796e+15 1.38853e+16 6.89095e+13 
262 0 38.7089 6.00168e+17 2051.57 261.819 156.486 7342.21 22.5487 -0.572328 5.8151e+17 0 0 6.83927e+15 1.17835e+16 3.44548e+13 
298 0 38.7367 6.00598e+17 1831.89 247.955 154.532 7360 21.4284 0.417603 5.84439e+17 5.16821e+13 0 6.21908e+15 9.87129e+15 1.72274e+13 
334 0 38.2167 5.92536e+17 1442.07 220.893 152.617 7385.46 16.6582 -1.279 5.79253e+17 0 0 4.97871e+15 8.18301e+15 1.20592e+14 
370 0 38.3789 5.95051e+17 1156.87 204.126 149.129 7402.72 16.5009 -0.951721 5.83905e+17 6.89095e+13 0 3.79002e+15 7.26996e+15 1.72274e+13 
406 0 37.9667 5.8866e+17 999.12 198.412 147.88 7412.14 14.0557 -1.05425 5.79098e+17 3.44548e+13 0 3.51439e+15 5.94345e+15 6.89095e+13 
442 0 37.71 5.8468e+17 858.126 188.581 142.09 7424.94 12.4359 0.309243 5.77582e+17 1.72274e+13 0 2.34292e+15 4.70308e+15 3.44548e+13 
478 0 37.8667 5.87109e+17 743.221 171.626 143.97 7433.36 11.1169 0.241473 5.81235e+17 3.44548e+13 0 2.18788e+15 3.6522e+15 0 
514 0 37.6433 5.83646e+17 678.266 178.515 144.704 7436.8 11.2336 0.666488 5.78582e+17 1.72274e+13 0 1.72274e+15 3.30766e+15 1.72274e+13 
550 0 37.5989 5.82957e+17 487.231 161.804 143.674 7449.12 5.63317 1.52127 5.79133e+17 1.72274e+13 0 1.36096e+15 2.44629e+15 0 
586 0 37.7789 5.85748e+17 452.505 163.73 140.764 7453.11 6.49409 -0.706653 5.82165e+17 0 0 1.36096e+15 2.18788e+15 3.44548e+13 
622 0 37.6389 5.83578e+17 394.792 164.738 139.088 7456.52 5.5997 0.343297 5.80701e+17 0 0 1.01642e+15 1.86056e+15 0 
11 0 45.7122 7.08752e+17 4795.98 403.626 186.403 7146.45 37.614 -1.51906 6.54951e+17 1.55046e+14 0 2.10002e+16 3.25942e+16 5.16821e+13 
47 0 40.9711 6.35242e+17 5556.85 445.816 192.301 7090.91 13.6149 -0.215541 5.81269e+17 1.72274e+14 0 2.05006e+16 3.32144e+16 8.61369e+13 
83 0 40.9511 6.34932e+17 5312.03 476.379 198.16 7107.27 22.6132 -0.987058 5.8282e+17 6.89095e+13 0 2.03111e+16 3.16467e+16 8.61369e+13 
119 0 40.9244 6.34519e+17 4939.93 442.532 191.014 7135.66 27.488 -0.361183 5.86989e+17 1.89501e+14 0 1.85022e+16 2.86491e+16 1.89501e+14 
155 0 40.5389 6.28541e+17 4534.41 420.83 189.695 7165.26 31.4234 -0.706395 5.85094e+17 1.37819e+14 0 1.65038e+16 2.66852e+16 1.20592e+14 
191 0 40.1 6.21736e+17 3789.83 365.949 179.517 7219.97 31.5805 -3.26524 5.85369e+17 8.61369e+13 0 1.34718e+16 2.26712e+16 1.37819e+14 
227 0 39.6378 6.1457e+17 3424.03 357.985 172.526 7244.99 33.6994 1.18692 5.81751e+17 1.55046e+14 0 1.27827e+16 1.97943e+16 8.61369e+13 
263 0 39.4444 6.11572e+17 3005.37 332.212 169.144 7275.59 32.983 0.205056 5.84318e+17 1.37819e+14 0 1.01297e+16 1.6969e+16 1.72274e+13 
299 0 38.9478 6.03871e+17 2431.28 283.026 157.301 7317.55 28.3184 1.00832 5.81889e+17 6.89095e+13 0 8.09687e+15 1.3713e+16 1.03364e+14 
335 0 38.5778 5.98135e+17 1944.37 246.568 157.641 7348.83 25.7277 0.122684 5.80029e+17 1.03364e+14 0 6.52918e+15 1.1439e+16 3.44548e+13 
371 0 38.1056 5.90813e+17 1587.01 222.756 153.464 7375.02 23.3746 -0.951755 5.75308e+17 1.72274e+13 0 5.70226e+15 9.7507e+15 3.44548e+13 
407 0 38.5711 5.98031e+17 1347.11 212.052 149.012 7391.66 21.564 0.201136 5.86076e+17 3.44548e+13 0 4.54803e+15 7.32164e+15 5.16821e+13 
443 0 37.9611 5.88574e+17 1156.22 222.102 149.578 7402.57 19.3102 -0.183138 5.78289e+17 1.72274e+13 0 3.9623e+15 6.27077e+15 3.44548e+13 
479 0 38.0856 5.90503e+17 860.027 189.522 144.805 7422.92 14.2989 -0.789668 5.83319e+17 1.72274e+13 0 2.91143e+15 4.18625e+15 6.89095e+13 
515 0 37.7278 5.84956e+17 693.83 180.529 142.243 7435.74 10.5888 -0.913977 5.78909e+17 1.72274e+13 0 2.23956e+15 3.79002e+15 0 
551 0 37.8411 5.86713e+17 645.582 169.297 142.908 7439.17 11.4998 0.410129 5.81252e+17 1.72274e+13 0 1.96392e+15 3.47993e+15 0 
587 0 37.6822 5.84249e+17 522.39 164.743 141.449 7448 9.10062 -1.37852 5.80098e+17 0 0 1.70551e+15 2.44629e+15 0 
623 0 37.4522 5.80683e+17 433.513 154.648 140.349 7451.77 8.84399 -1.08856 5.77462e+17 0 0 1.27483e+15 1.92947e+15 1.72274e+13 
12 0 48.1089 7.45911e+17 7287.26 597.637 217.903 6945 46.7629 3.79028 6.60188e+17 2.06729e+14 0 3.40585e+16 5.11309e+16 3.2732e+14 
48 0 43.2078 6.69921e+17 8136.73 617.848 235.941 6876.86 20.3189 1.39134 5.86007e+17 2.92865e+14 0 3.22669e+16 5.10792e+16 2.75638e+14 
84 0 43.0267 6.67113e+17 8018.38 633.604 232.286 6882.52 36.0853 0.241414 5.8549e+17 3.79002e+14 0 3.05097e+16 5.05796e+16 1.55046e+14 
120 0 42.2711 6.55399e+17 7319.93 612.846 217.923 6946.14 47.3048 -1.88528 5.83974e+17 1.37819e+14 0 2.8029e+16 4.30857e+16 1.72274e+14 
156 0 42.0033 6.51247e+17 6489.74 557.409 224.806 7004.07 53.9405 0.235192 5.85593e+17 2.41183e+14 0 2.54965e+16 3.98297e+16 8.61369e+13 
192 0 41.1522 6.38051e+17 5878.18 515.663 203.099 7056.77 58.3356 0.318196 5.82096e+17 1.03364e+14 0 2.17065e+16 3.40413e+16 1.03364e+14 
228 0 40.9922 6.3557e+17 4710.33 426.912 185.95 7150.86 55.7351 -2.78475 5.90417e+17 1.72274e+14 0 1.69862e+16 2.77878e+16 2.06729e+14 
264 0 40.1656 6.22753e+17 4058.43 387.541 183.961 7195.32 49.8167 0.709166 5.82716e+17 1.55046e+14 0 1.60731e+16 2.3791e+16 1.72274e+13 
300 0 39.7244 6.15913e+17 3148.3 330.485 167.456 7261.18 44.648 -1.40446 5.85748e+17 3.44548e+13 0 1.15079e+16 1.86056e+16 1.72274e+13 
336 0 39.1289 6.06679e+17 2662.91 326.341 170.561 7297.46 40.1847 -0.491966 5.80787e+17 6.89095e+13 0 1.03709e+16 1.53668e+16 8.61369e+13 
372 0 38.96 6.04061e+17 2036.25 287.346 162.219 7339.3 31.5021 1.93179 5.84473e+17 3.44548e+13 0 7.66618e+15 1.1818e+16 6.89095e+13 
408 0 38.4178 5.95654e+17 1652.37 242.758 155.801 7367.75 28.0765 2.0161 5.80218e+17 5.16821e+13 0 5.7884e+15 9.52674e+15 6.89095e+13 
13 0 52.7722 8.18215e+17 11128.4 927.394 282.812 6593.22 52.7821 -3.25855 6.80258e+17 3.44548e+14 0 5.80563e+16 7.93149e+16 2.41183e+14 
49 0 47.1533 7.31096e+17 12434.2 982.839 306.302 6469.61 47.6925 -1.05612 5.94551e+17 4.13457e+14 0 5.65919e+16 7.92632e+16 2.75638e+14 
85 0 46.9178 7.27443e+17 11910 985.086 302.503 6521.92 61.2371 -1.32818 5.9767e+17 5.68504e+14 0 5.2199e+16 7.67308e+16 2.75638e+14 
121 0 45.7556 7.09424e+17 10827.6 880.626 287.58 6625.49 79.6141 0.454742 5.94414e+17 4.13457e+14 0 4.64795e+16 6.79103e+16 2.06729e+14 
157 0 44.5333 6.90473e+17 9524.84 781.946 260.23 6746.79 90.2271 5.59027 5.91382e+17 2.58411e+14 0 4.03465e+16 5.81424e+16 3.44548e+14 
193 0 43.2767 6.70989e+17 8136.88 694.132 239.516 6867.67 95.1129 -2.12751 5.89039e+17 3.2732e+14 0 3.30421e+16 4.82711e+16 3.10093e+14 
229 0 42.3978 6.57362e+17 7002.36 589.982 214.077 6964.31 89.6859 0.477472 5.88797e+17 3.61775e+14 0 2.77878e+16 4.02776e+16 1.37819e+14 
265 0 41.1867 6.38585e+17 5397.06 512.399 205.981 7084.57 75.7242 -1.49399 5.84473e+17 1.03364e+14 0 2.11897e+16 3.26976e+16 1.20592e+14 
301 0 40.2178 6.23562e+17 4345.77 447.901 193.678 7168.56 67.7552 -2.08853 5.80718e+17 1.37819e+14 0 1.71929e+16 2.54621e+16 5.16821e+13 
337 0 39.9178 6.18911e+17 3528.5 382.812 180.247 7232.96 61.0338 0.92606 5.84439e+17 3.44548e+13 0 1.40575e+16 2.02939e+16 8.61369e+13 
373 0 39.3922 6.10762e+17 2686.06 326.241 168.612 7291.92 49.3981 -1.6296 5.84491e+17 6.89095e+13 0 1.02847e+16 1.58492e+16 6.89095e+13 
409 0 38.7278 6.0046e+17 2131.52 289.595 160.608 7334.14 41.3854 -1.44163 5.7996e+17 3.44548e+13 0 7.97628e+15 1.23865e+16 1.03364e+14 
445 0 38.6978 5.99995e+17 1630.39 247.231 154.87 7370.55 32.8944 -0.961374 5.84956e+17 1.72274e+13 0 6.20186e+15 8.80319e+15 1.72274e+13 
481 0 38.6511 5.99272e+17 1380.31 239.835 150.915 7387.39 28.5702 0.116748 5.86041e+17 5.16821e+13 0 4.58248e+15 8.54478e+15 5.16821e+13 
517 0 38.1489 5.91485e+17 1087.76 224.47 155.526 7405.31 23.179 0.31224 5.80666e+17 1.72274e+13 0 4.3413e+15 6.42581e+15 3.44548e+13 
553 0 37.91 5.87781e+17 769.203 190.194 145.916 7428.13 14.3161 0.354925 5.8058e+17 3.44548e+13 0 2.72193e+15 4.44466e+15 0 
589 0 37.8722 5.87195e+17 664.305 180.028 146.181 7434.28 15.4323 -0.164707 5.80683e+17 0 0 2.63579e+15 3.85893e+15 1.72274e+13 
625 0 37.6367 5.83543e+17 579.159 180.764 143.786 7442.07 13.9023 -1.4975 5.78306e+17 1.72274e+13 0 2.23956e+15 2.98034e+15 0 
444 0 38.3689 5.94896e+17 1403.44 238.32 153.779 7387.41 24.5588 1.60843 5.81872e+17 3.44548e+13 0 4.94426e+15 8.02796e+15 1.72274e+13 
480 0 38.0633 5.90158e+17 1153.64 214.942 149.755 7404.01 20.7976 0.791135 5.79443e+17 3.44548e+13 0 3.9623e+15 6.68422e+15 3.44548e+13 
516 0 37.9989 5.89159e+17 873.779 198.438 146.527 7420.08 18.7749 -0.555776 5.81028e+17 3.44548e+13 0 3.0837e+15 5.01317e+15 0 
552 0 38.18 5.91967e+17 762.719 189.536 143.879 7431.14 14.3413 -2.31019 5.85369e+17 0 0 2.46352e+15 4.11734e+15 1.72274e+13 