ITEM: TIMESTEP
18000
ITEM: NUMBER OF CELLS
1036
ITEM: BOX BOUNDS oo ao pp
-10 10
0 10
-0.5 0.5
ITEM: CELLS id proc f_avg_n f_avg_nrho f_avg_temp_tra f_avg_temp_rot f_avg_temp_vib f_avg_vel[1] f_avg_vel[2] f_avg_vel[3] f_avg_nrho_CO2 f_avg_nrho_O2 f_avg_nrho_C2 f_avg_nrho_CO f_avg_nrho_O f_avg_nrho_C 
1 0 37.764 5.85517e+17 242.059 140.947 136.26 7464.13 7.21749 -2.06089 5.84711e+17 0 0 6.20186e+13 7.44223e+14 0 
5 0 39.908 6.18759e+17 587.358 173.111 140.839 7441.13 30.065 -1.93953 6.13116e+17 3.10093e+13 0 1.79854e+15 3.81414e+15 0 
9 0 43.096 6.68188e+17 2008.61 264.728 154.201 7344.51 36.8869 2.67755 6.45954e+17 3.10093e+13 0 8.65159e+15 1.352e+16 3.10093e+13 
37 0 37.524 5.81796e+17 310.076 145.028 137.118 7464.43 0.475277 1.3611 5.80401e+17 0 0 4.3413e+14 9.61288e+14 0 
41 0 37.67 5.8406e+17 685.592 173.676 141.068 7438.56 -0.823792 2.13958 5.78726e+17 6.20186e+13 0 1.58147e+15 3.69011e+15 0 
45 0 38.448 5.96123e+17 2477.74 270.489 157.431 7317.15 6.11023 -3.15692 5.73796e+17 2.17065e+14 0 7.59728e+15 1.43883e+16 1.24037e+14 
73 0 37.316 5.78571e+17 286.345 140.699 136.642 7466.24 -0.150019 1.35128 5.77517e+17 0 0 3.10093e+14 7.44223e+14 0 
77 0 37.71 5.8468e+17 722.062 169.838 140.207 7436.97 1.53731 0.825668 5.79316e+17 0 0 1.6745e+15 3.69011e+15 0 
81 0 38.698 5.99999e+17 2335.45 235.164 165.527 7327.65 8.81248 -0.0529232 5.77827e+17 3.10093e+13 0 7.84535e+15 1.42953e+16 0 
109 0 37.714 5.84742e+17 250.651 140.373 137.907 7465.99 0.926609 -0.76251 5.83843e+17 0 0 3.10093e+14 5.89176e+14 0 
113 0 37.648 5.83719e+17 662.05 162.464 140.523 7438.97 4.15525 -0.151133 5.78881e+17 0 0 1.51946e+15 3.31799e+15 0 
117 0 39.162 6.07193e+17 2076.73 246.928 152.124 7342.85 8.38827 1.54478 5.86665e+17 3.10093e+13 0 6.48094e+15 1.38612e+16 1.55046e+14 
145 0 37.424 5.80246e+17 280.644 140.941 139.111 7464.57 0.567786 2.89261 5.79284e+17 0 0 3.41102e+14 6.20186e+14 0 
149 0 37.86 5.87006e+17 610.937 170.958 139.971 7442.81 1.33163 -1.70227 5.81889e+17 0 0 1.6745e+15 3.41102e+15 3.10093e+13 
153 0 38.774 6.01177e+17 2066.92 276.173 157.889 7342.34 11.6265 2.30267 5.8223e+17 6.20186e+13 0 7.25617e+15 1.15975e+16 3.10093e+13 
181 0 37.412 5.8006e+17 274.997 136.845 136.167 7465.69 1.72401 3.42593 5.79036e+17 0 0 1.24037e+14 8.99269e+14 0 
185 0 37.802 5.86107e+17 664.816 160.773 141.913 7436.88 0.267703 0.0643697 5.8161e+17 0 0 1.51946e+15 2.94588e+15 3.10093e+13 
189 0 38.47 5.96464e+17 1928.76 231.896 153.443 7356.71 13.0943 -2.89165 5.79688e+17 6.20186e+13 0 5.45763e+15 1.12564e+16 0 
217 0 37.204 5.76835e+17 215.199 139.85 137.102 7466.25 -0.684141 -1.57036 5.76215e+17 0 0 1.24037e+14 4.96149e+14 0 
221 0 37.556 5.82292e+17 547.118 164.893 141.376 7447.49 1.9978 0.196118 5.78571e+17 0 0 1.27138e+15 2.41872e+15 3.10093e+13 
225 0 38.7 6.0003e+17 1851.29 247.603 154.422 7355.93 16.2589 1.70528 5.82478e+17 6.20186e+13 0 6.26388e+15 1.12254e+16 0 
253 0 37.438 5.80463e+17 249.917 140.63 137.615 7464.33 0.831052 -0.578075 5.79688e+17 0 0 1.86056e+14 5.89176e+14 0 
257 0 37.718 5.84804e+17 584.584 162.302 137.761 7445.62 2.60493 0.51336 5.80618e+17 0 0 7.75232e+14 3.38001e+15 3.10093e+13 
261 0 38.2 5.92277e+17 1443.96 226.363 150.424 7388.46 12.4583 -1.64327 5.7885e+17 3.10093e+13 0 4.55837e+15 8.83765e+15 0 
289 0 37.342 5.78974e+17 217.949 139.172 137.179 7469.76 0.154539 0.48651 5.78199e+17 0 0 1.55046e+14 6.20186e+14 0 
293 0 37.676 5.84153e+17 591.439 153.243 140.293 7446.03 1.75463 -1.97871 5.80153e+17 0 0 1.27138e+15 2.72882e+15 0 
297 0 37.864 5.87068e+17 1278.07 223.395 150.722 7394.95 12.359 -0.184217 5.74726e+17 1.24037e+14 0 4.27928e+15 7.90737e+15 3.10093e+13 
325 0 37.358 5.79222e+17 243.27 138.644 135.618 7468.44 0.656561 2.14155 5.78385e+17 0 0 1.86056e+14 6.51195e+14 0 
329 0 37.662 5.83936e+17 527.814 157.517 139.489 7447.99 1.86459 -0.46076 5.80215e+17 0 0 1.20936e+15 2.48074e+15 3.10093e+13 
333 0 38.252 5.93084e+17 1110.78 205.789 148.273 7408.2 10.9511 2.27262 5.83347e+17 6.20186e+13 0 3.47304e+15 6.17085e+15 3.10093e+13 
361 0 37.476 5.81052e+17 202.217 137.269 136.607 7469.73 -2.36078 1.57852 5.80494e+17 0 0 9.30279e+13 4.65139e+14 0 
365 0 37.558 5.82323e+17 394.522 148.788 138.345 7458.77 2.49014 0.740884 5.79657e+17 0 0 9.61288e+14 1.70551e+15 0 
369 0 38.02 5.89487e+17 939.525 184.978 146.768 7420.5 10.421 -1.31822 5.81083e+17 0 0 2.91487e+15 5.48864e+15 0 
397 0 37.488 5.81238e+17 210.629 138.683 136.782 7467.52 0.293355 -1.62469 5.80742e+17 0 0 9.30279e+13 4.03121e+14 0 
401 0 37.46 5.80804e+17 397.791 145.363 139.283 7455.64 3.61654 1.46486 5.78664e+17 0 0 6.20186e+14 1.51946e+15 0 
405 0 37.452 5.8068e+17 950.254 189.851 144.043 7419.75 12.658 1.28537 5.72897e+17 9.30279e+13 0 2.72882e+15 4.96149e+15 0 
433 0 37.53 5.81889e+17 239.256 141.423 136.965 7468.84 1.67017 0.13575 5.81145e+17 0 0 3.10093e+14 4.3413e+14 0 
437 0 37.388 5.79688e+17 349.273 146.073 136.944 7459.16 2.08874 0.438366 5.77517e+17 0 0 6.82204e+14 1.48845e+15 0 
441 0 38.172 5.91843e+17 673.631 174.599 142.723 7436.82 9.62171 -1.83342 5.86386e+17 0 0 2.04661e+15 3.38001e+15 3.10093e+13 
469 0 37.462 5.80835e+17 198.481 136.869 136.941 7467.59 -0.390025 1.38633 5.8037e+17 0 0 6.20186e+13 4.03121e+14 0 
473 0 37.502 5.81455e+17 363.022 148.847 137.117 7458.46 2.6422 0.672371 5.79471e+17 0 0 5.27158e+14 1.45744e+15 0 
477 0 37.712 5.84711e+17 612.711 171.883 140.215 7439.96 9.59144 -0.406682 5.79098e+17 3.10093e+13 0 2.0156e+15 3.53506e+15 3.10093e+13 
505 0 37.594 5.82882e+17 218.892 142.46 136.117 7468.08 1.23619 -0.511599 5.82199e+17 0 0 2.17065e+14 4.65139e+14 0 
509 0 37.372 5.7944e+17 288.661 139.827 137.17 7462.9 1.05897 -0.227243 5.78137e+17 3.10093e+13 0 3.10093e+14 9.61288e+14 0 
513 0 37.962 5.88587e+17 498.468 155.802 139.668 7447.95 6.60321 -1.19783 5.84215e+17 0 0 1.39542e+15 2.97689e+15 0 
541 0 37.402 5.79905e+17 200.493 137.598 136.454 7470.07 -0.993912 0.38809 5.79378e+17 0 0 6.20186e+13 4.65139e+14 0 
545 0 37.56 5.82354e+17 262.256 143.4 136.462 7466.11 -0.147049 -0.485585 5.81021e+17 3.10093e+13 0 4.65139e+14 8.37251e+14 0 
549 0 37.638 5.83564e+17 511.363 159.397 140.64 7448.46 9.46779 0.884186 5.79936e+17 0 0 1.24037e+15 2.35671e+15 3.10093e+13 
577 0 37.36 5.79253e+17 181.809 135.912 136.214 7469.54 -0.300172 -1.5711 5.79067e+17 0 0 0 1.86056e+14 0 
581 0 37.54 5.82044e+17 233.068 139.994 137.491 7467.74 1.87511 1.85334 5.81021e+17 3.10093e+13 0 4.03121e+14 5.89176e+14 0 
585 0 37.616 5.83223e+17 383.86 155.817 138.244 7457.59 6.06413 0.240208 5.80432e+17 3.10093e+13 0 6.82204e+14 2.04661e+15 3.10093e+13 
613 0 37.466 5.80897e+17 212.116 138.879 137.888 7467.01 1.99905 0.879673 5.80401e+17 0 0 1.24037e+14 3.72111e+14 0 
617 0 37.328 5.78757e+17 225.259 142.157 137.658 7468.33 4.76118 -0.989313 5.77765e+17 0 0 2.48074e+14 7.44223e+14 0 
621 0 37.63 5.8344e+17 320.78 144.278 139.333 7460.33 4.26744 0.533293 5.81641e+17 3.10093e+13 0 6.82204e+14 1.08533e+15 0 
2 0 38.408 5.95502e+17 374.263 143.254 138.245 7458.11 13.5445 -0.0516575 5.93456e+17 0 0 8.06241e+14 1.24037e+15 0 
6 0 41.086 6.37024e+17 776.704 160.264 142.687 7433.11 29.6507 0.639336 6.29644e+17 0 0 2.04661e+15 5.30259e+15 3.10093e+13 
38 0 37.566 5.82447e+17 337.102 148.519 138.045 7461.82 -1.44937 1.05201 5.80773e+17 0 0 4.96149e+14 1.17835e+15 0 
42 0 37.702 5.84556e+17 860.225 171.624 144.643 7426 1.53217 1.98202 5.77331e+17 3.10093e+13 0 2.48074e+15 4.62038e+15 9.30279e+13 
74 0 37.738 5.85114e+17 355.046 143.529 138.734 7459.85 0.0525671 1.03447 5.83161e+17 0 0 6.51195e+14 1.30239e+15 0 
78 0 37.96 5.88556e+17 907.428 175.224 144.138 7424.93 -0.596367 0.696346 5.8099e+17 1.24037e+14 0 2.13964e+15 5.27158e+15 3.10093e+13 
110 0 37.426 5.80277e+17 329.923 140.796 137.817 7463.6 0.834501 2.06882 5.78633e+17 0 0 4.65139e+14 1.17835e+15 0 
114 0 38.136 5.91285e+17 864.633 168.949 141.47 7425.61 2.43268 2.83214 5.83254e+17 3.10093e+13 0 2.63579e+15 5.36461e+15 0 
146 0 37.538 5.82013e+17 359.724 140.673 136.374 7460.45 0.387945 -0.819652 5.80339e+17 0 0 4.96149e+14 1.17835e+15 0 
150 0 37.43 5.80339e+17 803.025 164.858 144.127 7429.48 2.44933 0.946028 5.73486e+17 0 0 1.98459e+15 4.86846e+15 0 
182 0 37.538 5.82013e+17 259.471 142.787 137.342 7462.07 1.09557 2.55103 5.81021e+17 0 0 3.72111e+14 6.20186e+14 0 
186 0 37.994 5.89083e+17 762.134 167.46 141.12 7431.47 4.18388 1.09978 5.82509e+17 3.10093e+13 0 2.07762e+15 4.43433e+15 3.10093e+13 
218 0 37.692 5.84401e+17 268.553 143.284 137.423 7464.9 0.184793 -0.0359841 5.83099e+17 0 0 3.41102e+14 9.61288e+14 0 
222 0 38.03 5.89642e+17 711.891 172.787 143.533 7436.59 5.02793 1.39255 5.83905e+17 3.10093e+13 0 1.73652e+15 3.96919e+15 0 
254 0 37.554 5.82261e+17 293.503 143.657 137.122 7465.1 1.77412 0.434928 5.81176e+17 0 0 2.79084e+14 8.06241e+14 0 
258 0 37.824 5.86448e+17 623.519 165.728 140.066 7442.6 2.21431 -0.111295 5.81362e+17 0 0 1.76753e+15 3.28698e+15 3.10093e+13 
290 0 37.806 5.86169e+17 282.703 143.493 137.206 7462.98 1.22537 -0.817468 5.84804e+17 0 0 3.10093e+14 1.02331e+15 3.10093e+13 
294 0 37.914 5.87843e+17 716.266 163.913 141.739 7436.25 6.14247 -0.67736 5.83316e+17 0 0 1.6745e+15 2.85285e+15 0 
326 0 37.674 5.84122e+17 260.266 136.822 136.989 7466.16 1.88427 0.977756 5.8313e+17 0 0 1.86056e+14 8.06241e+14 0 
330 0 37.76 5.85455e+17 575.559 161.133 140.114 7445.5 1.68265 0.192094 5.81083e+17 0 0 1.20936e+15 3.16295e+15 0 
362 0 37.532 5.8192e+17 281.922 142.288 137.074 7464.31 -0.66394 -0.980725 5.80711e+17 0 0 3.10093e+14 8.99269e+14 0 
366 0 37.812 5.86262e+17 475.374 161.109 140.757 7451.1 4.54433 1.23244 5.82634e+17 0 0 1.27138e+15 2.35671e+15 0 
398 0 37.73 5.8499e+17 264.783 142.719 138.353 7464.23 4.07489 0.393833 5.83812e+17 0 0 4.65139e+14 7.13214e+14 0 
402 0 37.728 5.84959e+17 420.711 162.237 138.497 7454.7 2.56481 3.12585 5.81796e+17 0 0 1.11633e+15 2.04661e+15 0 
434 0 37.274 5.7792e+17 248.122 142.296 137.343 7466.26 0.65331 1.35344 5.77114e+17 0 0 1.86056e+14 6.20186e+14 0 
438 0 37.702 5.84556e+17 387.187 150.391 139.324 7458.46 3.88638 0.218498 5.82292e+17 0 0 7.75232e+14 1.48845e+15 0 
470 0 37.49 5.81269e+17 216.859 138.582 136.234 7467.07 1.70571 1.15246 5.80556e+17 0 0 2.48074e+14 4.65139e+14 0 
474 0 37.442 5.80525e+17 342.873 147.633 136.788 7459.61 1.94175 -0.21474 5.78478e+17 3.10093e+13 0 6.82204e+14 1.3334e+15 0 
506 0 37.346 5.79036e+17 230.954 140.953 136.81 7466.82 3.23035 -0.149369 5.78261e+17 0 0 1.24037e+14 6.51195e+14 0 
510 0 37.468 5.80928e+17 332.509 149.601 138.658 7460.71 4.87793 -1.83859 5.78943e+17 6.20186e+13 0 6.82204e+14 1.24037e+15 0 
542 0 37.592 5.82851e+17 228.861 138.023 136.97 7467.91 -0.0334817 -1.8302 5.82168e+17 0 0 2.17065e+14 4.65139e+14 0 
546 0 37.63 5.8344e+17 248.206 143.387 136.753 7464.2 -2.42419 -1.89181 5.82354e+17 0 0 3.10093e+14 7.75232e+14 0 
578 0 37.604 5.83037e+17 186.091 139.445 136.691 7472.14 1.22603 -0.980694 5.82634e+17 3.10093e+13 0 6.20186e+13 3.10093e+14 0 
582 0 37.598 5.82944e+17 277.651 149.212 138.425 7462.87 2.46568 1.76327 5.80866e+17 0 0 8.06241e+14 1.27138e+15 0 
614 0 37.592 5.82851e+17 198.866 138.68 136.817 7466.96 0.485631 -1.05649 5.82478e+17 0 0 9.30279e+13 2.79084e+14 0 
618 0 37.342 5.78974e+17 215.151 142.995 137.22 7468.45 2.15315 -0.555103 5.78137e+17 0 0 3.41102e+14 4.96149e+14 0 
3 0 39.078 6.0589e+17 286.021 146.829 137.891 7463.4 17.5137 0.139229 6.03875e+17 0 0 3.41102e+14 1.6745e+15 0 
7 0 41.68 6.46234e+17 1163.8 196.475 146.493 7403.04 30.4024 -0.708165 6.34543e+17 9.30279e+13 0 4.0002e+15 7.56627e+15 3.10093e+13 
39 0 37.51 5.81579e+17 435.48 152.221 138.461 7453.42 0.512666 -1.17855 5.79253e+17 0 0 8.37251e+14 1.48845e+15 0 
43 0 37.928 5.8806e+17 1216.06 203.718 149.069 7403.53 2.2477 1.27208 5.7792e+17 3.10093e+13 0 3.28698e+15 6.79103e+15 3.10093e+13 
75 0 37.504 5.81486e+17 456.831 148.136 140.06 7452.67 0.773301 -0.675457 5.78726e+17 0 0 7.13214e+14 2.0156e+15 3.10093e+13 
79 0 37.998 5.89145e+17 1114.03 176.863 144.548 7412.17 1.92779 0.740188 5.79471e+17 3.10093e+13 0 2.82185e+15 6.82204e+15 0 
111 0 37.698 5.84494e+17 423.6 145.2 138.111 7455.02 1.56214 -0.235257 5.81982e+17 0 0 6.82204e+14 1.82955e+15 0 
115 0 37.964 5.88618e+17 1116.41 199.04 149.109 7407.13 4.83692 -0.490659 5.7823e+17 3.10093e+13 0 3.84515e+15 6.51195e+15 0 
147 0 37.624 5.83347e+17 421.772 152.483 138.926 7455.7 0.837647 0.367413 5.80463e+17 0 0 9.92297e+14 1.89157e+15 0 
151 0 38.33 5.94293e+17 1107.64 195.759 144.594 7411.13 4.70444 4.30281 5.85269e+17 0 0 3.349e+15 5.6747e+15 0 
183 0 37.472 5.8099e+17 392.399 145.195 138.561 7458.29 -1.44303 -1.796 5.78416e+17 0 0 5.89176e+14 1.98459e+15 0 
187 0 38.028 5.89611e+17 1003.8 173.735 147.48 7419.7 4.66969 1.13045 5.81796e+17 0 0 2.72882e+15 5.08552e+15 0 
219 0 37.572 5.8254e+17 343.783 145.311 137.674 7460.88 1.43686 -1.34403 5.80556e+17 0 0 4.96149e+14 1.48845e+15 0 
223 0 37.654 5.83812e+17 976.308 181.767 144.138 7415.61 5.59263 0.375541 5.75935e+17 0 0 2.54276e+15 5.20956e+15 1.24037e+14 
255 0 37.566 5.82447e+17 344.532 143.602 137.238 7462.54 -0.608744 1.36712 5.80711e+17 0 0 3.41102e+14 1.39542e+15 0 
259 0 37.95 5.88401e+17 878.447 163.534 141.168 7424.49 7.54932 0.871051 5.81858e+17 0 0 2.29469e+15 4.24827e+15 0 
291 0 37.314 5.7854e+17 351.456 141.13 137.738 7457.67 -0.160337 -1.20458 5.76494e+17 0 0 4.3413e+14 1.61248e+15 0 
295 0 37.826 5.86479e+17 760.643 183.96 146.542 7432.76 4.30066 0.739001 5.80029e+17 0 0 2.13964e+15 4.27928e+15 3.10093e+13 
327 0 37.298 5.78292e+17 335.684 141.606 137.345 7462.16 0.636386 2.24885 5.76897e+17 0 0 4.3413e+14 9.61288e+14 0 
331 0 37.514 5.81641e+17 706.49 162.982 140.859 7437.22 7.25984 0.143801 5.76246e+17 0 0 1.76753e+15 3.59708e+15 3.10093e+13 
363 0 37.522 5.81765e+17 300.161 144.976 137.248 7463.06 -1.20534 -1.22146 5.79998e+17 0 0 5.89176e+14 1.17835e+15 0 
367 0 37.752 5.85331e+17 547.288 170.659 142.512 7445.84 3.5531 1.53403 5.8068e+17 0 0 1.45744e+15 3.19396e+15 0 
399 0 37.372 5.7944e+17 343.972 147.499 138.572 7461.18 1.26743 0.125834 5.77703e+17 0 0 4.65139e+14 1.27138e+15 0 
403 0 37.548 5.82168e+17 559.434 151.254 140.339 7446.43 6.14215 -0.222627 5.77858e+17 0 0 1.24037e+15 3.0079e+15 6.20186e+13 
435 0 37.662 5.83936e+17 252.171 139.499 136.855 7464.89 2.90522 -2.96147 5.8282e+17 0 0 3.10093e+14 8.06241e+14 0 
439 0 37.51 5.81579e+17 478.661 156.8 138.993 7450.42 4.11705 0.0802041 5.78509e+17 0 0 9.61288e+14 2.10863e+15 0 
471 0 37.54 5.82044e+17 227.919 137.902 137.178 7467.69 1.32027 0.748698 5.8099e+17 0 0 3.41102e+14 7.13214e+14 0 
475 0 38.07 5.90262e+17 451.123 149.265 139.699 7451.46 4.6439 0.569186 5.86975e+17 3.10093e+13 0 1.02331e+15 2.23267e+15 0 
507 0 37.532 5.8192e+17 239.216 148.365 136.563 7467.39 1.88281 -0.00194069 5.81083e+17 0 0 2.48074e+14 5.89176e+14 0 
511 0 37.558 5.82323e+17 389.566 152.992 137.839 7459.48 4.34198 -0.451235 5.79967e+17 0 0 7.75232e+14 1.58147e+15 0 
543 0 37.31 5.78478e+17 204.757 140.823 136.181 7468.86 0.699362 1.20851 5.77703e+17 3.10093e+13 0 1.24037e+14 6.20186e+14 0 
547 0 37.668 5.84029e+17 330.972 151.408 137.735 7459.59 2.51059 0.0797527 5.81765e+17 0 0 7.44223e+14 1.51946e+15 0 
579 0 37.398 5.79843e+17 219.153 137.765 136.879 7467.91 1.00136 -1.47219 5.79378e+17 0 0 1.24037e+14 3.41102e+14 0 
583 0 36.952 5.72928e+17 298.446 142.638 137.743 7463.32 1.67411 -1.20914 5.71098e+17 6.20186e+13 0 4.96149e+14 1.27138e+15 0 
615 0 37.4 5.79874e+17 184.337 138.441 137.049 7470.42 1.86505 1.54816 5.79409e+17 0 0 1.55046e+14 2.79084e+14 3.10093e+13 
619 0 37.742 5.85176e+17 335.774 142.742 139.538 7459.17 3.53099 -1.08332 5.83316e+17 0 0 5.89176e+14 1.27138e+15 0 
4 0 40.21 6.23442e+17 487.874 145.983 140.241 7450.3 22.8187 -0.387851 6.19783e+17 0 0 1.17835e+15 2.48074e+15 0 
8 0 42.476 6.58575e+17 1612 234.902 159.481 7374.14 33.0068 -1.11087 6.42078e+17 3.10093e+13 0 6.0158e+15 1.03261e+16 1.24037e+14 
40 0 38.012 5.89363e+17 510.633 151.98 138.618 7451.42 0.75401 -1.83172 5.86107e+17 0 0 9.61288e+14 2.29469e+15 0 
44 0 38.508 5.97053e+17 1640.3 220.943 151.041 7374.96 1.8511 3.04351 5.81424e+17 0 0 5.76773e+15 9.86095e+15 0 
76 0 37.858 5.86975e+17 518 155.679 141.599 7448.78 -1.47739 -0.880883 5.82758e+17 3.10093e+13 0 1.39542e+15 2.79084e+15 0 
80 0 38.28 5.93518e+17 1784.8 218.672 151.596 7367.24 5.60765 0.991357 5.77951e+17 9.30279e+13 0 5.76773e+15 9.6749e+15 3.10093e+13 
112 0 37.53 5.81889e+17 529.073 148.902 138.908 7448.77 2.07583 0.374769 5.78695e+17 3.10093e+13 0 1.11633e+15 2.04661e+15 0 
116 0 38.494 5.96836e+17 1688.63 215.134 150.347 7371.02 7.99071 1.17058 5.81672e+17 0 0 5.39562e+15 9.70591e+15 6.20186e+13 
148 0 37.674 5.84122e+17 405.802 145.358 138.063 7455.1 -0.144748 2.18345 5.81145e+17 3.10093e+13 0 8.06241e+14 2.13964e+15 0 
152 0 37.92 5.87936e+17 1419.25 210.275 145.654 7390.29 8.00799 -0.978924 5.75284e+17 3.10093e+13 0 4.06222e+15 8.55856e+15 0 
184 0 37.946 5.88339e+17 518.16 152.229 137.783 7450.48 0.680469 -1.26114 5.84897e+17 0 0 1.14734e+15 2.29469e+15 0 
188 0 38.382 5.95099e+17 1485.9 218.502 149.808 7382.33 7.34647 6.85722 5.82106e+17 0 0 4.77543e+15 8.18645e+15 3.10093e+13 
220 0 37.728 5.84959e+17 401.204 146.259 137.891 7460.26 0.940523 0.203066 5.82509e+17 0 0 7.75232e+14 1.6745e+15 0 
224 0 38.208 5.92401e+17 1291.53 205.335 148.266 7394.37 9.82453 -1.19186 5.8037e+17 3.10093e+13 0 3.96919e+15 8.0004e+15 3.10093e+13 
256 0 37.632 5.83471e+17 407.938 149.741 137.726 7456.15 4.46433 -0.217363 5.81114e+17 0 0 7.13214e+14 1.64349e+15 0 
260 0 38.01 5.89332e+17 1288.43 194.552 146.299 7396.59 11.274 1.31447 5.78633e+17 3.10093e+13 0 3.44203e+15 7.19415e+15 3.10093e+13 
292 0 37.578 5.82634e+17 440.254 146.021 137.637 7455.79 0.342915 0.836042 5.79936e+17 0 0 8.37251e+14 1.86056e+15 0 
296 0 38.198 5.92246e+17 954.01 192.918 148.008 7418.12 9.14541 -0.607985 5.8437e+17 3.10093e+13 0 2.82185e+15 4.96149e+15 6.20186e+13 
328 0 37.494 5.81331e+17 370.107 144.829 140.36 7458.03 1.86414 1.52729 5.79222e+17 0 0 5.27158e+14 1.58147e+15 0 
332 0 38.05 5.89952e+17 868.115 178.126 142.352 7425.71 9.11617 1.16214 5.83037e+17 0 0 2.17065e+15 4.74442e+15 0 
364 0 37.82 5.86386e+17 372.488 150.877 137.518 7458.3 1.881 -0.0720194 5.84153e+17 0 0 8.06241e+14 1.42643e+15 0 
368 0 37.75 5.853e+17 816.843 181.928 144.03 7427.97 6.70304 0.358893 5.78726e+17 0 0 2.63579e+15 3.90717e+15 3.10093e+13 
400 0 37.506 5.81517e+17 318.265 144.874 137.527 7462.69 1.35428 -1.058 5.8006e+17 0 0 4.65139e+14 9.92297e+14 0 
404 0 38.238 5.92867e+17 703.614 175.899 139.099 7434.78 11.5686 -0.0929273 5.87502e+17 3.10093e+13 0 1.64349e+15 3.69011e+15 0 
436 0 37.654 5.83812e+17 317.298 149.302 137.851 7461.79 2.33562 0.0652532 5.82168e+17 0 0 4.96149e+14 1.14734e+15 0 
440 0 37.474 5.81021e+17 624.57 162.194 142.192 7441.52 6.488 1.08357 5.76029e+17 6.20186e+13 0 1.45744e+15 3.47304e+15 0 
472 0 37.986 5.88959e+17 319.591 141.716 138.186 7462.19 1.32123 0.171931 5.87099e+17 0 0 4.96149e+14 1.36441e+15 0 
476 0 37.494 5.81331e+17 547.857 160.078 138.934 7446.49 6.76932 0.886332 5.77238e+17 0 0 1.48845e+15 2.60478e+15 0 
508 0 37.588 5.82789e+17 290.165 140.884 137.958 7462.31 2.18349 0.216812 5.81672e+17 0 0 3.72111e+14 7.44223e+14 0 
512 0 37.36 5.79253e+17 381.054 165.455 140.185 7457.47 6.00513 0.390127 5.76649e+17 0 0 7.13214e+14 1.89157e+15 0 
544 0 37.488 5.81238e+17 242.128 146.491 137.568 7466.23 2.07337 0.765479 5.80122e+17 3.10093e+13 0 3.41102e+14 7.13214e+14 3.10093e+13 
548 0 37.774 5.85672e+17 455.125 147.197 139.669 7453.62 3.63946 -1.70296 5.82385e+17 3.10093e+13 0 1.08533e+15 2.17065e+15 0 
580 0 37.556 5.82292e+17 222.172 140.255 136.388 7467.57 1.61438 -0.399109 5.81703e+17 0 0 1.55046e+14 4.3413e+14 0 
584 0 37.914 5.87843e+17 391.105 143.717 137.647 7457.93 6.1571 -1.79385 5.85486e+17 0 0 7.44223e+14 1.58147e+15 3.10093e+13 
616 0 37.53 5.81889e+17 175.441 140.749 138.2 7470.85 -0.423108 0.087789 5.81455e+17 0 0 2.17065e+14 2.17065e+14 0 
620 0 37.592 5.82851e+17 322.406 151.816 138.416 7458.99 4.27619 -0.826893 5.81083e+17 0 0 7.44223e+14 1.02331e+15 0 
10 0 44.884 6.9591e+17 3295.42 328.564 171.297 7254.91 35.8995 -0.426838 6.58606e+17 3.10093e+13 0 1.3272e+16 2.38772e+16 1.24037e+14 
46 0 39.874 6.18232e+17 3349.91 343.05 175.851 7254.72 7.18383 -0.50753 5.85114e+17 1.24037e+14 0 1.21246e+16 2.07762e+16 9.30279e+13 
82 0 39.954 6.19473e+17 3556.45 340.987 169.061 7240.63 12.6764 -3.3393 5.86665e+17 1.55046e+14 0 1.19696e+16 2.05281e+16 1.55046e+14 
118 0 39.224 6.08154e+17 3590.85 317.111 169.892 7243.41 19.8778 -2.3183 5.77052e+17 9.30279e+13 0 1.18766e+16 1.89777e+16 1.55046e+14 
154 0 39.288 6.09146e+17 3130.05 335.938 170.879 7266.59 20.9411 3.02679 5.78602e+17 9.30279e+13 0 1.13804e+16 1.89777e+16 9.30279e+13 
190 0 38.946 6.03844e+17 2768.21 283.498 165.154 7299.1 17.7915 0.691477 5.79191e+17 1.55046e+14 0 9.05471e+15 1.54116e+16 3.10093e+13 
226 0 38.824 6.01952e+17 2301.83 307.228 161.099 7327.52 21.8206 1.03318 5.80711e+17 3.10093e+13 0 7.72131e+15 1.3396e+16 9.30279e+13 
262 0 38.672 5.99596e+17 1997.13 247.665 151.386 7348.69 23.214 -1.1924 5.81486e+17 0 0 5.95378e+15 1.21556e+16 0 
298 0 38.606 5.98572e+17 1864.53 254.533 154.923 7358.37 22.6735 -0.0120364 5.82851e+17 0 0 6.44993e+15 9.27178e+15 0 
334 0 38.278 5.93487e+17 1457.04 220.382 151.523 7385.69 15.8962 -1.1304 5.80184e+17 0 0 5.0235e+15 8.18645e+15 9.30279e+13 
370 0 38.524 5.97301e+17 1172.97 197.678 149.926 7403.82 16.4055 -1.24964 5.86138e+17 9.30279e+13 0 4.03121e+15 7.0081e+15 3.10093e+13 
406 0 38.04 5.89797e+17 933.725 204.022 149.403 7416.94 13.3285 -1.37818 5.80525e+17 0 0 3.22497e+15 6.0158e+15 3.10093e+13 
442 0 37.58 5.82665e+17 806.623 185.809 142.035 7427.86 11.764 0.992084 5.75935e+17 3.10093e+13 0 2.23267e+15 4.43433e+15 3.10093e+13 
478 0 38.196 5.92215e+17 743.933 170.02 144.748 7431.95 9.56964 -0.468939 5.86417e+17 3.10093e+13 0 2.20166e+15 3.56607e+15 0 
514 0 37.488 5.81238e+17 682.098 177.797 142.724 7436.88 12.9496 -0.470595 5.75998e+17 3.10093e+13 0 1.64349e+15 3.56607e+15 0 
550 0 37.666 5.83998e+17 481.18 166.153 141.248 7449.64 5.20541 1.41756 5.80153e+17 3.10093e+13 0 1.30239e+15 2.51175e+15 0 
586 0 37.802 5.86107e+17 479.121 163.568 141.978 7450.16 6.5974 -2.41096 5.82354e+17 0 0 1.24037e+15 2.48074e+15 3.10093e+13 
622 0 37.692 5.84401e+17 412.025 162.67 139.347 7455.02 6.17389 0.963598 5.81331e+17 0 0 1.05432e+15 2.0156e+15 0 
11 0 45.69 7.08407e+17 5044.96 401.648 192.187 7129.34 36.224 -4.39479 6.52094e+17 2.48074e+14 0 2.13964e+16 3.46374e+16 3.10093e+13 
47 0 41.016 6.35938e+17 5463.56 445.639 192.49 7098.47 13.5673 1.18247 5.83037e+17 1.86056e+14 0 1.98149e+16 3.27768e+16 1.24037e+14 
83 0 40.842 6.33241e+17 4985.11 454.326 189.8 7130.5 21.6084 -1.69387 5.84463e+17 1.24037e+14 0 1.78924e+16 3.06682e+16 9.30279e+13 
119 0 40.752 6.31845e+17 4880.67 438.937 189.888 7141.6 28.8671 0.177622 5.862e+17 1.86056e+14 0 1.81404e+16 2.71641e+16 1.55046e+14 
155 0 40.632 6.29985e+17 4505.1 446.074 188.441 7166.57 32.0856 -1.86884 5.85517e+17 6.20186e+13 0 1.6714e+16 2.75052e+16 1.86056e+14 
191 0 40.378 6.26047e+17 3830.3 368.545 180.94 7215.47 31.0929 -3.69652 5.89487e+17 0 0 1.3334e+16 2.31329e+16 9.30279e+13 
227 0 39.598 6.13953e+17 3318.43 334.215 168.526 7251.99 31.629 1.50818 5.80866e+17 1.55046e+14 0 1.20626e+16 2.08072e+16 6.20186e+13 
263 0 39.292 6.09208e+17 2859.75 327.646 169.42 7284.81 31.5963 4.5752 5.83192e+17 1.24037e+14 0 9.0237e+15 1.6838e+16 3.10093e+13 
299 0 39.01 6.04836e+17 2394.61 281.195 157.427 7320.97 27.1395 1.26473 5.83006e+17 6.20186e+13 0 8.06241e+15 1.35511e+16 1.55046e+14 
335 0 38.368 5.94882e+17 1949.97 244.483 159.433 7348.81 25.7862 1.21721 5.76525e+17 6.20186e+13 0 6.48094e+15 1.17525e+16 6.20186e+13 
371 0 38.264 5.9327e+17 1558.75 219.427 156.451 7377.64 23.307 0.064893 5.7823e+17 0 0 5.51965e+15 9.48884e+15 3.10093e+13 
407 0 38.63 5.98944e+17 1282.02 218.053 148.76 7395.14 20.3727 0.643348 5.87285e+17 0 0 4.37231e+15 7.22516e+15 6.20186e+13 
443 0 37.94 5.88246e+17 1235.37 226.254 150.205 7398.83 20.6732 -0.618199 5.77951e+17 3.10093e+13 0 3.96919e+15 6.26388e+15 3.10093e+13 
479 0 38.126 5.9113e+17 924.532 194.946 145.599 7417.27 16.1885 -0.146829 5.83254e+17 3.10093e+13 0 3.13194e+15 4.6824e+15 3.10093e+13 
515 0 37.554 5.82261e+17 690.073 180.883 141.589 7435.75 9.86138 0.555711 5.76401e+17 3.10093e+13 0 2.17065e+15 3.6591e+15 0 
551 0 37.812 5.86262e+17 618.263 164.704 141.805 7441.67 10.0415 0.174567 5.80804e+17 3.10093e+13 0 1.76753e+15 3.6591e+15 0 
587 0 37.654 5.83812e+17 524.316 161.569 139.92 7448.99 10.0899 -0.957662 5.79688e+17 0 0 1.58147e+15 2.54276e+15 0 
623 0 37.52 5.81734e+17 449.166 152.548 141.384 7452.3 8.97744 -0.870492 5.78726e+17 0 0 1.20936e+15 1.76753e+15 3.10093e+13 
12 0 48.17 7.46859e+17 7231.2 614.199 222.679 6947.55 48.7426 7.64768 6.60219e+17 2.79084e+14 0 3.44203e+16 5.15684e+16 3.72111e+14 
48 0 42.86 6.64529e+17 8040.49 593.084 233.156 6882.96 23.8346 2.23957 5.81858e+17 3.10093e+14 0 3.13504e+16 5.07932e+16 2.17065e+14 
84 0 43.17 6.69335e+17 7935.03 651.63 231.637 6889.21 35.0638 -0.329367 5.86758e+17 4.03121e+14 0 3.03271e+16 5.16305e+16 2.17065e+14 
120 0 42.426 6.578e+17 7306.29 630.065 213.426 6944.89 44.3477 1.37825 5.86324e+17 3.10093e+13 0 2.80324e+16 4.3258e+16 1.55046e+14 
156 0 41.682 6.46265e+17 6623.61 572.214 222.937 6995.78 52.5532 0.917557 5.7854e+17 2.48074e+14 0 2.57687e+16 4.15835e+16 1.24037e+14 
192 0 41.032 6.36187e+17 5727.47 469.25 201.616 7068.74 58.8226 1.51376 5.8099e+17 1.24037e+14 0 2.05281e+16 3.44513e+16 9.30279e+13 
228 0 40.872 6.33706e+17 4754.12 428.527 183.356 7148.34 56.4748 -1.73626 5.89363e+17 1.24037e+14 0 1.6621e+16 2.72572e+16 3.41102e+14 
264 0 40.294 6.24744e+17 4124.54 396.303 188.559 7193.06 53.4601 1.20213 5.8375e+17 1.86056e+14 0 1.6683e+16 2.40942e+16 3.10093e+13 
300 0 39.7 6.15534e+17 3134.63 326.627 169.495 7261.24 46.7421 -2.57574 5.85176e+17 6.20186e+13 0 1.12564e+16 1.90087e+16 3.10093e+13 
336 0 39.128 6.06666e+17 2743.17 339.987 170.173 7292.21 40.179 -0.547457 5.80804e+17 6.20186e+13 0 1.05432e+16 1.51946e+16 6.20186e+13 
372 0 38.764 6.01022e+17 1980.71 283.584 164.655 7343.87 31.6927 1.93907 5.81579e+17 3.10093e+13 0 7.93838e+15 1.14114e+16 6.20186e+13 
408 0 38.31 5.93983e+17 1683.28 230.532 155.561 7364.48 29.6147 2.24308 5.78695e+17 3.10093e+13 0 5.70571e+15 9.48884e+15 6.20186e+13 
13 0 52.96 8.21126e+17 11203 952.871 296.384 6578.25 46.4873 -5.18022 6.80158e+17 3.72111e+14 0 5.89487e+16 8.13684e+16 2.79084e+14 
49 0 47.506 7.36564e+17 12489.4 958.031 311.113 6468.5 45.0725 -1.91084 5.99689e+17 4.03121e+14 0 5.6623e+16 7.96319e+16 2.17065e+14 
85 0 46.678 7.23726e+17 11814.6 932.976 293.441 6529.85 64.3789 -6.67393 5.92867e+17 6.82204e+14 0 5.14134e+16 7.85465e+16 2.17065e+14 
121 0 45.75 7.09337e+17 10746.9 871.61 288.656 6632.75 82.5683 -0.506975 5.94045e+17 3.41102e+14 0 4.63899e+16 6.84065e+16 1.55046e+14 
157 0 44.608 6.91631e+17 9460.92 794.499 257.172 6752.56 89.1776 4.46522 5.92805e+17 3.10093e+14 0 4.03121e+16 5.78633e+16 3.41102e+14 
193 0 43.646 6.76716e+17 8180.96 750.755 233.959 6862.05 95.6422 -3.25734 5.92929e+17 4.96149e+14 0 3.37071e+16 4.92427e+16 3.41102e+14 
229 0 42.176 6.53924e+17 6820.38 598.393 212.046 6976.96 85.4717 0.668909 5.88029e+17 2.17065e+14 0 2.63269e+16 3.91957e+16 1.55046e+14 
265 0 41.372 6.41458e+17 5396.33 485.198 201.451 7083.62 76.0834 -0.877308 5.87409e+17 1.55046e+14 0 2.05592e+16 3.3273e+16 6.20186e+13 
301 0 40.122 6.22077e+17 4400.97 461.626 191.189 7163.28 68.8084 -0.241898 5.79409e+17 1.55046e+14 0 1.75823e+16 2.49315e+16 0 
337 0 39.738 6.16124e+17 3468.04 388.179 180.001 7239.27 62.0791 1.86857 5.83223e+17 3.10093e+13 0 1.36751e+16 1.90707e+16 1.24037e+14 
373 0 39.442 6.11534e+17 2727.86 319.317 164.788 7288.28 46.3709 -1.36804 5.85021e+17 6.20186e+13 0 9.98499e+15 1.63729e+16 9.30279e+13 
409 0 38.968 6.04185e+17 2144.31 297.578 160.344 7333.78 41.692 -0.703338 5.82696e+17 0 0 8.43453e+15 1.29619e+16 9.30279e+13 
445 0 38.646 5.99192e+17 1647.37 246.408 156.481 7367.38 33.5631 -1.06306 5.83719e+17 0 0 6.17085e+15 9.27178e+15 3.10093e+13 
481 0 38.83 6.02045e+17 1337.16 245.392 149.513 7389.76 26.9441 1.08365 5.89394e+17 6.20186e+13 0 4.21726e+15 8.3415e+15 3.10093e+13 
517 0 38.164 5.91719e+17 1126.82 226.314 154.965 7402.2 25.6346 1.53313 5.80215e+17 3.10093e+13 0 4.83745e+15 6.57397e+15 6.20186e+13 
553 0 38.068 5.90231e+17 788.608 193.148 144.796 7425.67 14.847 0.193851 5.82634e+17 6.20186e+13 0 3.03891e+15 4.49635e+15 0 
589 0 37.516 5.81672e+17 628.475 178.183 144.736 7436.27 13.2852 -0.660075 5.75532e+17 0 0 2.35671e+15 3.78313e+15 0 
625 0 37.98 5.88866e+17 543.581 183.888 142.818 7444.57 12.6627 -1.36223 5.83719e+17 3.10093e+13 0 2.0156e+15 3.10093e+15 0 
444 0 38.226 5.92681e+17 1408.8 222.905 153.387 7388.59 25.4979 2.40859 5.79657e+17 6.20186e+13 0 4.89947e+15 8.06241e+15 0 
480 0 38.082 5.90448e+17 1141.24 236.081 149.406 7403.34 21.5182 -0.969631 5.7944e+17 3.10093e+13 0 3.6591e+15 7.28718e+15 3.10093e+13 
516 0 37.86 5.87006e+17 839.284 192.218 148.367 7423.87 19.0679 -1.7627 5.79316e+17 6.20186e+13 0 2.63579e+15 4.9925e+15 0 
552 0 38.432 5.95874e+17 769.069 170.844 142.699 7432.81 12.8127 -2.77145 5.89921e+17 0 0 1.92258e+15 4.03121e+15 0 
588 0 37.572 5.8254e+17 684.537 184.931 144.49 7436.66 15.129 2.93552 5.7637e+17 6.20186e+13 0 2.38772e+15 3.72111e+15 0 
624 0 37.876 5.87254e+17 495.535 159.262 142.856 7448.84 10.5919 -0.188314 5.83006e+17 3.10093e+13 0 1.42643e+15 2.79084e+15 0 
14 0 60.616 9.39829e+17 16037.5 1364.79 386.653 6027.13 61.6443 2.67932 6.96345e+17 8.06241e+14 0 1.00563e+17 1.41681e+17 4.3413e+14 
50 0 54.37 8.42987e+17 17265 1524.02 434.67 5863.71 62.9882 5.41923 6.07379e+17 9.61288e+14 0 9.61598e+16 1.38084e+17 4.03121e+14 
86 0 52.968 8.2125e+17 16827.3 1478.65 408.861 5933.52 104.028 -1.7626 6.06821e+17 6.20186e+14 0 8.94618e+16 1.23541e+17 8.06241e+14 
122 0 51.248 7.94582e+17 15318.3 1363.58 370.721 6115.92 140.639 1.42914 6.02976e+17 4.03121e+14 0 8.03761e+16 1.10424e+17 4.03121e+14 