ITEM: TIMESTEP
21000
ITEM: NUMBER OF CELLS
1036
ITEM: BOX BOUNDS oo ao pp
-10 10
0 10
-0.5 0.5
ITEM: CELLS id proc f_avg_n f_avg_nrho f_avg_temp_tra f_avg_temp_rot f_avg_temp_vib f_avg_vel[1] f_avg_vel[2] f_avg_vel[3] f_avg_nrho_CO2 f_avg_nrho_O2 f_avg_nrho_C2 f_avg_nrho_CO f_avg_nrho_O f_avg_nrho_C 
1 0 37.81 5.86231e+17 224.912 140.482 136.856 7466.21 6.88519 -0.998126 5.85552e+17 0 0 7.75232e+13 6.00805e+14 0 
5 0 40.2325 6.23791e+17 604.903 166.146 140.382 7440.39 30.0128 -0.695214 6.18209e+17 1.93808e+13 0 1.68613e+15 3.87616e+15 0 
9 0 43.1562 6.69122e+17 2148.61 257.582 154.741 7337.45 34.8483 0.262141 6.47183e+17 1.93808e+13 0 8.1787e+15 1.37022e+16 3.87616e+13 
37 0 37.4975 5.81385e+17 294.046 142.643 137.093 7465.37 0.937519 0.100899 5.80087e+17 0 0 3.48854e+14 9.49659e+14 0 
41 0 37.7238 5.84893e+17 651.815 165.018 140.262 7441.3 -0.26468 1.4143 5.79796e+17 3.87616e+13 0 1.47294e+15 3.58545e+15 0 
45 0 38.535 5.97471e+17 2453.11 258.814 158.535 7318.52 6.44477 -2.18634 5.75397e+17 2.71331e+14 0 7.19028e+15 1.45356e+16 7.75232e+13 
73 0 37.4 5.79874e+17 270.012 139.309 136.711 7466.86 0.381882 0.827317 5.78943e+17 0 0 2.71331e+14 6.58947e+14 0 
77 0 37.6987 5.84506e+17 684.354 165.355 140.735 7438.7 1.14663 0.111845 5.79137e+17 0 0 1.55046e+15 3.79864e+15 1.93808e+13 
81 0 38.8125 6.01774e+17 2411.38 254.075 165.83 7320.25 7.58242 1.06304 5.78575e+17 5.81424e+13 0 8.39189e+15 1.47488e+16 0 
109 0 37.6838 5.84273e+17 259.738 139.638 137.627 7465.43 -0.133643 -0.842173 5.83343e+17 0 0 2.90712e+14 6.39567e+14 0 
113 0 37.6538 5.83808e+17 639.6 164.179 140.411 7439.99 3.3661 0.445733 5.7906e+17 1.93808e+13 0 1.47294e+15 3.23659e+15 1.93808e+13 
117 0 39.165 6.07239e+17 2166.61 251.894 155.447 7335.52 9.54388 -0.780563 5.8656e+17 7.75232e+13 0 6.97709e+15 1.35084e+16 1.16285e+14 
145 0 37.51 5.81579e+17 269.094 141.596 138.293 7465.21 -0.496098 2.15296 5.8063e+17 0 0 2.90712e+14 6.58947e+14 0 
149 0 37.7975 5.86037e+17 622.462 164.935 140.283 7442.64 1.48734 -1.01247 5.81269e+17 0 0 1.43418e+15 3.31412e+15 1.93808e+13 
153 0 38.7362 6.00592e+17 2072.56 276.015 157.924 7343.38 11.4054 2.58825 5.8187e+17 5.81424e+13 0 7.22904e+15 1.14153e+16 1.93808e+13 
181 0 37.3837 5.79622e+17 269.717 138.606 136.218 7465.88 2.06868 1.98445 5.78575e+17 0 0 1.93808e+14 8.52755e+14 0 
185 0 37.6788 5.84196e+17 604.338 157.547 140.584 7441.76 0.17532 -0.624097 5.79951e+17 0 0 1.4148e+15 2.81022e+15 1.93808e+13 
189 0 38.5887 5.98305e+17 1892.88 236.253 155.271 7356.6 12.6692 -3.16582 5.81405e+17 7.75232e+13 0 5.67858e+15 1.11246e+16 1.93808e+13 
217 0 37.2938 5.78226e+17 226.219 138.696 136.858 7466.75 -0.39827 -0.831295 5.77548e+17 0 0 1.55046e+14 5.23282e+14 0 
221 0 37.6525 5.83789e+17 549.831 160.024 140.25 7447.54 2.74286 0.421751 5.7999e+17 0 0 1.25975e+15 2.50012e+15 3.87616e+13 
225 0 38.615 5.98712e+17 1853.12 258.027 153.971 7357.27 16.0515 1.25553 5.81734e+17 9.6904e+13 0 6.3569e+15 1.05044e+16 1.93808e+13 
253 0 37.53 5.81889e+17 245.453 139.575 137.78 7465.54 0.587752 -0.391825 5.81056e+17 0 0 2.13189e+14 6.20186e+14 0 
257 0 37.7563 5.85397e+17 550.158 158.688 138.268 7446.99 2.06046 -0.373901 5.81424e+17 0 0 7.75232e+14 3.17845e+15 1.93808e+13 
261 0 38.2675 5.93324e+17 1515.41 241.163 150.238 7381.76 13.2455 -1.60494 5.79428e+17 1.93808e+13 0 4.94211e+15 8.93455e+15 0 
289 0 37.3312 5.78808e+17 239.389 139.847 136.99 7468.31 0.950603 1.43092 5.77994e+17 0 0 1.74427e+14 6.39567e+14 0 
293 0 37.7013 5.84544e+17 514.389 154.073 140.673 7449.5 0.900945 -0.410535 5.80978e+17 1.93808e+13 0 1.14347e+15 2.40322e+15 0 
297 0 37.93 5.88091e+17 1316.51 228.427 149.165 7392.64 11.8789 0.506949 5.75513e+17 7.75232e+13 0 4.55449e+15 7.90737e+15 3.87616e+13 
325 0 37.4237 5.80242e+17 227.902 138.189 135.52 7468.45 0.610041 0.962551 5.79544e+17 0 0 1.55046e+14 5.42663e+14 0 
329 0 37.6325 5.83479e+17 487.906 163.533 140.388 7450.57 2.54891 0.490213 5.80087e+17 1.93808e+13 0 1.29851e+15 2.05437e+15 1.93808e+13 
333 0 38.3062 5.93925e+17 1157.75 208.131 147.32 7405.54 13.3904 1.04012 5.83634e+17 5.81424e+13 0 3.62421e+15 6.58947e+15 1.93808e+13 
361 0 37.4275 5.803e+17 195.856 137.133 136.599 7469.6 -1.10815 0.476085 5.79796e+17 0 0 9.6904e+13 4.06997e+14 0 
365 0 37.4387 5.80474e+17 418.8 153.841 138.305 7456.97 3.6237 -0.662534 5.77742e+17 0 0 1.08533e+15 1.64737e+15 0 
369 0 37.8925 5.8751e+17 968.267 189.084 145.303 7418.8 10.9789 -0.901412 5.79079e+17 1.93808e+13 0 2.98464e+15 5.42663e+15 0 
397 0 37.3875 5.7968e+17 209.347 137.916 136.408 7468.77 -0.264582 -1.76449 5.79118e+17 0 0 1.16285e+14 4.45759e+14 0 
401 0 37.46 5.80804e+17 398.843 149.133 139.654 7455.84 3.46989 0.899439 5.78633e+17 1.93808e+13 0 7.75232e+14 1.37604e+15 0 
405 0 37.7725 5.85649e+17 838.651 182.952 142.086 7426.86 9.75945 -0.523084 5.78769e+17 5.81424e+13 0 2.26755e+15 4.55449e+15 0 
433 0 37.5112 5.81599e+17 221.993 140.595 137.392 7469.46 1.17643 0.651148 5.80978e+17 0 0 2.3257e+14 3.87616e+14 0 
437 0 37.3937 5.79777e+17 312.361 144.773 137.528 7462.01 2.10002 0.674102 5.77936e+17 0 0 4.65139e+14 1.37604e+15 0 
441 0 37.9462 5.88343e+17 657.525 169.115 141.774 7437.78 9.32885 -1.74062 5.83188e+17 3.87616e+13 0 1.68613e+15 3.41102e+15 1.93808e+13 
469 0 37.4012 5.79893e+17 197.345 136.595 136.195 7468.38 -1.29276 1.16608 5.79447e+17 0 0 9.6904e+13 3.48854e+14 0 
473 0 37.3837 5.79622e+17 349.642 147.893 138.454 7459.3 2.35993 0.0580117 5.77664e+17 0 0 6.00805e+14 1.35666e+15 0 
477 0 37.8513 5.8687e+17 616.596 173.054 139.761 7439.37 8.77962 1.16669 5.81463e+17 1.93808e+13 0 1.87994e+15 3.48854e+15 1.93808e+13 
505 0 37.5262 5.81831e+17 208.764 141.193 136.964 7467.64 0.281823 -0.972625 5.81269e+17 0 0 1.93808e+14 3.68235e+14 0 
509 0 37.5063 5.81521e+17 286.602 143.135 137.367 7461.84 1.05084 -0.47805 5.803e+17 1.93808e+13 0 2.90712e+14 9.10898e+14 0 
513 0 37.9412 5.88266e+17 486.201 161.964 139.201 7449.35 7.13333 -0.814926 5.84041e+17 0 0 1.31789e+15 2.90712e+15 0 
541 0 37.4888 5.8125e+17 187.876 137.802 136.849 7469.74 -1.09548 0.382826 5.80823e+17 0 0 5.81424e+13 3.68235e+14 0 
545 0 37.6337 5.83498e+17 265.336 147.618 137.856 7465.67 1.02976 -0.126191 5.82161e+17 1.93808e+13 0 3.87616e+14 9.30279e+14 0 
549 0 37.8038 5.86134e+17 445.558 160.487 139.904 7452.75 7.4166 0.127806 5.82936e+17 0 0 1.12409e+15 2.05437e+15 1.93808e+13 
577 0 37.4712 5.80978e+17 170.104 136.209 136.866 7469.8 0.0638734 -1.88427 5.80823e+17 0 0 1.93808e+13 1.35666e+14 0 
581 0 37.425 5.80261e+17 232.737 140.433 137.711 7466.41 2.14301 0.58309 5.79273e+17 1.93808e+13 0 3.87616e+14 5.81424e+14 0 
585 0 37.445 5.80571e+17 388.546 154.585 138.411 7457.39 6.09909 0.129603 5.77916e+17 1.93808e+13 0 6.58947e+14 1.95746e+15 1.93808e+13 
613 0 37.405 5.79951e+17 188.783 138.721 137.163 7469.39 1.32751 -0.192913 5.79602e+17 0 0 7.75232e+13 2.71331e+14 0 
617 0 37.3387 5.78924e+17 213.287 142.822 137.318 7469.01 3.89679 -1.114 5.78129e+17 0 0 1.93808e+14 6.00805e+14 0 
621 0 37.6987 5.84506e+17 326.736 145.273 138.737 7460.07 3.87339 -0.291034 5.82878e+17 1.93808e+13 0 6.39567e+14 9.6904e+14 0 
2 0 38.5063 5.97026e+17 337.084 142.749 137.723 7461.02 14.1785 -0.425462 5.95262e+17 0 0 5.81424e+14 1.18223e+15 0 
6 0 40.9025 6.34179e+17 837.325 168.224 142.961 7428.68 29.5694 1.14064 6.26562e+17 0 0 2.4226e+15 5.17467e+15 1.93808e+13 
38 0 37.5187 5.81715e+17 340.001 149.036 137.602 7461.49 -1.26005 1.3519 5.80164e+17 0 0 5.42663e+14 1.0078e+15 0 
42 0 37.9075 5.87742e+17 896.337 173.161 146.769 7423.61 1.51143 3.26839 5.80029e+17 3.87616e+13 0 2.79084e+15 4.82582e+15 5.81424e+13 
74 0 37.6512 5.83769e+17 351.085 143.203 138.682 7460.33 0.14487 1.38691 5.81851e+17 0 0 6.00805e+14 1.27913e+15 3.87616e+13 
78 0 37.9775 5.88828e+17 925.164 182.233 142.915 7423.81 0.0981828 -0.557735 5.8094e+17 1.35666e+14 0 2.24817e+15 5.48477e+15 1.93808e+13 
110 0 37.4975 5.81385e+17 348.266 141.433 137.86 7460.93 1.47679 1.23468 5.79699e+17 0 0 4.8452e+14 1.20161e+15 0 
114 0 37.9988 5.89157e+17 879.501 173.57 142.9 7425.96 3.24945 0.834534 5.81095e+17 5.81424e+13 0 2.65517e+15 5.3491e+15 0 
146 0 37.545 5.82122e+17 342.509 143.314 136.478 7461.71 -1.40859 0.0144365 5.80571e+17 1.93808e+13 0 5.03901e+14 1.02718e+15 0 
150 0 37.7275 5.84951e+17 791.518 167.331 142.971 7429.89 3.17857 0.0284394 5.78032e+17 0 0 1.95746e+15 4.96149e+15 0 
182 0 37.6763 5.84157e+17 283.175 141.105 137.643 7461.16 -0.0920913 1.53921 5.82916e+17 0 0 4.26378e+14 8.13994e+14 0 
186 0 37.8862 5.87413e+17 756.275 173.952 140.555 7432.09 3.603 2.47424 5.81192e+17 1.93808e+13 0 2.0156e+15 4.16687e+15 1.93808e+13 
218 0 37.69 5.8437e+17 266.709 141.965 137.389 7465.2 0.930074 0.835532 5.8313e+17 0 0 3.68235e+14 8.72136e+14 0 
222 0 38.0625 5.90146e+17 730.771 169.54 143 7435.08 5.12819 1.74996 5.84099e+17 3.87616e+13 0 1.99622e+15 4.01183e+15 0 
254 0 37.5213 5.81754e+17 272.81 143.302 137.579 7465.81 1.24488 0.944972 5.80688e+17 0 0 3.68235e+14 6.97709e+14 0 
258 0 37.7437 5.85203e+17 636.053 163.742 140.486 7440.9 2.38351 -0.302341 5.79835e+17 0 0 1.86056e+15 3.48854e+15 1.93808e+13 
290 0 37.6688 5.84041e+17 279.687 142.85 138.039 7462.85 -0.0706963 -2.0491 5.82606e+17 0 0 3.29474e+14 1.08533e+15 1.93808e+13 
294 0 37.7263 5.84932e+17 677.246 162.081 141.777 7438.67 4.32898 -0.396562 5.80494e+17 1.93808e+13 0 1.55046e+15 2.86836e+15 0 
326 0 37.6688 5.84041e+17 280.398 138.707 137.684 7466.35 2.11075 0.619342 5.82878e+17 0 0 2.5195e+14 9.10898e+14 0 
330 0 37.6638 5.83963e+17 602.363 165.208 141.243 7443.67 2.5654 -1.05927 5.79583e+17 0 0 1.45356e+15 2.9265e+15 0 
362 0 37.5925 5.82858e+17 270.022 142.291 137.197 7464.85 -0.0901885 -0.149655 5.81676e+17 0 0 2.71331e+14 9.10898e+14 0 
366 0 37.8362 5.86638e+17 480.724 156.592 139.425 7450.53 4.17429 1.01892 5.82897e+17 0 0 1.12409e+15 2.61641e+15 0 
398 0 37.68 5.84215e+17 246.871 140.414 137.323 7464.51 3.02534 0.288723 5.83246e+17 0 0 3.68235e+14 6.00805e+14 0 
402 0 37.7612 5.85475e+17 430.124 158.355 138.467 7454.64 2.83204 1.33018 5.82122e+17 0 0 1.08533e+15 2.26755e+15 0 
434 0 37.34 5.78943e+17 238.406 139.987 137.966 7467.31 0.412634 1.1738 5.78149e+17 0 0 2.3257e+14 5.62043e+14 0 
438 0 37.6638 5.83963e+17 377.633 151.845 139.451 7458.76 3.36711 0.353863 5.81695e+17 0 0 8.33375e+14 1.43418e+15 0 
470 0 37.5812 5.82684e+17 217.827 140.366 136.753 7467.3 0.874386 0.94136 5.82006e+17 0 0 1.93808e+14 4.8452e+14 0 
474 0 37.6187 5.83265e+17 371.352 148.217 136.81 7458.93 2.75355 -0.0573807 5.81114e+17 1.93808e+13 0 7.94613e+14 1.33728e+15 0 
506 0 37.4087 5.80009e+17 217.732 142.083 136.743 7466.9 2.07893 -0.219936 5.79292e+17 0 0 1.35666e+14 5.81424e+14 0 
510 0 37.5025 5.81463e+17 339.475 150.913 138.341 7458.95 4.36729 -1.77294 5.79486e+17 3.87616e+13 0 6.00805e+14 1.33728e+15 0 
542 0 37.51 5.81579e+17 210.503 138.178 136.516 7469.28 0.613814 -1.14981 5.81037e+17 0 0 1.74427e+14 3.68235e+14 0 
546 0 37.5513 5.82219e+17 255.007 145.182 137.331 7464.05 -0.27934 -1.19067 5.80901e+17 0 0 5.23282e+14 7.94613e+14 0 
578 0 37.465 5.80881e+17 181.589 138.56 136.808 7471.36 0.351858 -0.644317 5.80552e+17 1.93808e+13 0 7.75232e+13 2.3257e+14 0 
582 0 37.4725 5.80998e+17 268.659 147.332 138.253 7463.92 2.36846 0.485904 5.79195e+17 0 0 6.20186e+14 1.18223e+15 0 
614 0 37.525 5.81812e+17 188.677 138.334 136.769 7468.94 1.33912 -0.570752 5.81482e+17 0 0 7.75232e+13 2.5195e+14 0 
618 0 37.335 5.78866e+17 223.283 142.092 136.977 7467.72 3.00139 -1.44512 5.78032e+17 0 0 3.48854e+14 4.8452e+14 0 
3 0 39.0288 6.05127e+17 310.644 144.279 137.493 7462.26 18.1944 -0.128563 6.03131e+17 0 0 3.29474e+14 1.66675e+15 0 
7 0 41.7975 6.48055e+17 1192.14 192.338 147.083 7402.94 31.2165 0.355932 6.36097e+17 5.81424e+13 0 3.58545e+15 8.29498e+15 1.93808e+13 
39 0 37.4825 5.81153e+17 411.377 150.866 139.454 7455.1 1.47511 -0.962423 5.7873e+17 0 0 7.36471e+14 1.68613e+15 0 
43 0 37.915 5.87859e+17 1234.77 198.591 150.333 7401.27 1.73099 1.22027 5.77083e+17 1.93808e+13 0 3.44978e+15 7.28718e+15 1.93808e+13 
75 0 37.63 5.8344e+17 420.133 147.419 139.073 7453.75 -0.0387008 0.74044 5.80688e+17 0 0 7.94613e+14 1.93808e+15 1.93808e+13 
79 0 38.0588 5.90087e+17 1192.22 187.487 145.946 7406.22 2.39827 0.969448 5.79622e+17 3.87616e+13 0 3.41102e+15 6.99647e+15 1.93808e+13 
111 0 37.6412 5.83614e+17 401.596 143.46 138.623 7455.53 1.94157 -1.43113 5.81153e+17 0 0 7.1709e+14 1.74427e+15 0 
115 0 38.0625 5.90146e+17 1142.72 186.842 147.417 7405.94 3.77819 -0.757623 5.79932e+17 1.93808e+13 0 3.81802e+15 6.37628e+15 0 
147 0 37.4675 5.8092e+17 418.462 152.094 139.202 7455.96 1.5283 0.545837 5.78168e+17 0 0 9.10898e+14 1.84118e+15 0 
151 0 38.3862 5.95165e+17 1115.4 202.469 144.511 7410.18 4.18092 2.95416 5.85785e+17 1.93808e+13 0 3.48854e+15 5.87238e+15 0 
183 0 37.4375 5.80455e+17 368.403 147.039 137.949 7458.97 -1.08611 -2.0216 5.78168e+17 0 0 5.62043e+14 1.72489e+15 0 
187 0 37.8862 5.87413e+17 964.331 177.749 147.275 7421.05 5.70377 0.321747 5.79292e+17 0 0 2.96526e+15 5.15529e+15 0 
219 0 37.5825 5.82703e+17 352.009 143.427 137.324 7459.77 0.259634 -1.10316 5.80707e+17 0 0 4.65139e+14 1.53108e+15 0 
223 0 37.86 5.87006e+17 948.811 181.297 142.83 7418.47 6.34049 0.328304 5.78808e+17 3.87616e+13 0 2.67455e+15 5.38786e+15 9.6904e+13 
255 0 37.5662 5.82451e+17 339.434 143.071 137.517 7460.76 0.0672869 0.94594 5.80513e+17 0 0 4.26378e+14 1.5117e+15 0 
259 0 37.8013 5.86095e+17 881.469 172.562 143.375 7424.45 6.8869 0.629895 5.79079e+17 0 0 2.53889e+15 4.47697e+15 0 
291 0 37.4075 5.7999e+17 332.406 141.603 137.198 7459.84 0.68577 0.125567 5.7811e+17 0 0 4.26378e+14 1.45356e+15 0 
295 0 37.8713 5.8718e+17 764.54 176.477 144.679 7433.53 5.36264 1.10237 5.8094e+17 0 0 2.11251e+15 4.08935e+15 3.87616e+13 
327 0 37.4588 5.80785e+17 292.07 140.969 137.08 7464.09 0.309834 1.09111 5.79602e+17 0 0 3.48854e+14 8.33375e+14 0 
331 0 37.7375 5.85106e+17 698.916 163.325 140.375 7436.49 6.96355 -0.0645343 5.79719e+17 0 0 1.93808e+15 3.41102e+15 3.87616e+13 
363 0 37.5162 5.81676e+17 289.976 143.344 138.202 7464.2 0.304032 -0.951219 5.80087e+17 0 0 5.62043e+14 1.0078e+15 1.93808e+13 
367 0 37.7925 5.85959e+17 546.839 166.742 143.755 7445.44 3.95047 0.654471 5.81211e+17 0 0 1.43418e+15 3.31412e+15 0 
399 0 37.4988 5.81405e+17 320.178 146.584 138.132 7461.96 0.832731 -0.765541 5.7968e+17 0 0 4.8452e+14 1.24037e+15 0 
403 0 37.3663 5.7935e+17 544.17 158.938 140.475 7446.49 5.17337 -0.733085 5.75028e+17 0 0 1.53108e+15 2.73269e+15 5.81424e+13 
435 0 37.6713 5.84079e+17 260.764 139.956 137.007 7464.01 2.15998 -2.58661 5.82975e+17 0 0 3.29474e+14 7.75232e+14 0 
439 0 37.7463 5.85242e+17 479.175 156.106 139.661 7450.68 3.64989 0.469485 5.8187e+17 0 0 1.16285e+15 2.20941e+15 0 
471 0 37.495 5.81347e+17 220.311 139.24 136.701 7467.93 1.44027 1.44063 5.80397e+17 1.93808e+13 0 3.48854e+14 5.81424e+14 0 
475 0 37.7338 5.85048e+17 412.661 150.438 138.818 7453.97 3.69959 0.654242 5.82083e+17 1.93808e+13 0 9.49659e+14 1.99622e+15 0 
507 0 37.5225 5.81773e+17 224.559 144.969 136.656 7468.25 0.94027 0.0281663 5.80978e+17 0 0 2.5195e+14 5.42663e+14 0 
511 0 37.6125 5.83168e+17 364.575 159.568 138.249 7459.27 3.11111 -0.864508 5.80843e+17 0 0 7.55851e+14 1.56985e+15 0 
543 0 37.3762 5.79505e+17 203.294 140.397 136.576 7469.25 0.482704 1.22419 5.78827e+17 1.93808e+13 0 1.74427e+14 4.8452e+14 0 
547 0 37.5588 5.82335e+17 336.175 152.84 138.462 7458.98 2.50086 0.508717 5.79971e+17 0 0 7.36471e+14 1.62799e+15 0 
579 0 37.3312 5.78808e+17 200.051 141.089 137.837 7469.82 0.72091 -1.42864 5.78343e+17 1.93808e+13 0 1.16285e+14 3.29474e+14 0 
583 0 37.3912 5.79738e+17 289.228 144.15 138.212 7463.15 1.97528 -1.39137 5.7811e+17 3.87616e+13 0 5.03901e+14 1.08533e+15 0 
615 0 37.3525 5.79137e+17 197.779 140.368 137.173 7468.66 1.10567 -0.155228 5.78595e+17 0 0 1.93808e+14 3.29474e+14 1.93808e+13 
619 0 37.495 5.81347e+17 319.316 149.253 139.635 7460.58 3.47524 -1.31104 5.79486e+17 0 0 6.20186e+14 1.24037e+15 0 
4 0 39.9138 6.18848e+17 495.245 154.264 140.508 7449.98 23.2336 -1.67943 6.15166e+17 0 0 1.12409e+15 2.53889e+15 1.93808e+13 
8 0 42.5262 6.59354e+17 1615.29 220.355 155.538 7375.49 32.5692 -0.110087 6.43288e+17 1.93808e+13 0 5.89176e+15 1.00586e+16 9.6904e+13 
40 0 37.9213 5.87955e+17 501.22 154.063 138.957 7450.11 0.866898 -1.10178 5.84506e+17 0 0 1.02718e+15 2.4226e+15 0 
44 0 38.655 5.99332e+17 1782.54 218.805 150.969 7364.33 2.71825 3.23516 5.83052e+17 1.93808e+13 0 6.02743e+15 1.02137e+16 1.93808e+13 
76 0 37.7625 5.85494e+17 539.627 160.942 140.323 7446.41 -0.777764 -0.391687 5.81269e+17 1.93808e+13 0 1.31789e+15 2.88774e+15 0 
80 0 38.3125 5.94022e+17 1759.19 214.465 151.942 7368.66 5.90051 1.75362 5.78498e+17 9.6904e+13 0 5.63981e+15 9.76793e+15 1.93808e+13 
112 0 37.505 5.81502e+17 513.441 149.627 138.693 7450.37 1.97413 0.499358 5.78343e+17 1.93808e+13 0 1.06594e+15 2.07375e+15 0 
116 0 38.5475 5.97665e+17 1667.6 218.928 151.019 7371.77 7.46843 1.02974 5.82703e+17 1.93808e+13 0 5.11653e+15 9.74854e+15 7.75232e+13 
148 0 37.7275 5.84951e+17 470.15 145.672 139.148 7452.21 0.357197 1.81959 5.81657e+17 1.93808e+13 0 8.33375e+14 2.44198e+15 0 
152 0 37.9988 5.89157e+17 1479.7 217.942 147.117 7384.76 7.88092 -1.40184 5.75687e+17 1.93808e+13 0 4.51573e+15 8.87641e+15 5.81424e+13 
184 0 37.835 5.86618e+17 478.224 153.58 138.36 7452.09 1.10141 -1.05069 5.83362e+17 0 0 1.0078e+15 2.24817e+15 0 
188 0 38.2638 5.93266e+17 1475.94 204.923 149.851 7383.82 7.37673 4.93644 5.803e+17 1.93808e+13 0 4.51573e+15 8.39189e+15 3.87616e+13 
220 0 37.695 5.84448e+17 412.039 147.554 139.194 7457.97 0.563641 -0.751506 5.81909e+17 3.87616e+13 0 8.13994e+14 1.68613e+15 0 
224 0 38.245 5.92975e+17 1297.98 201.6 148.888 7394.53 8.54672 0.175829 5.80843e+17 5.81424e+13 0 3.95368e+15 8.06241e+15 5.81424e+13 
256 0 37.5712 5.82529e+17 417.913 158.576 137.096 7454.82 2.98016 -0.246149 5.79951e+17 0 0 8.13994e+14 1.76365e+15 0 
260 0 37.9787 5.88847e+17 1165.87 193.813 147.845 7404.42 10.7723 1.74956 5.78885e+17 3.87616e+13 0 3.39164e+15 6.51195e+15 1.93808e+13 
292 0 37.6487 5.8373e+17 424.657 144.483 138.626 7456.43 0.924564 0.10452 5.81172e+17 0 0 7.36471e+14 1.8218e+15 0 
296 0 38.0538 5.9001e+17 1057.48 196.651 147.99 7412.08 10.9318 -0.816692 5.81327e+17 3.87616e+13 0 3.21721e+15 5.38786e+15 3.87616e+13 
328 0 37.495 5.81347e+17 341.907 144.022 139.115 7460.03 1.53254 0.701033 5.7937e+17 0 0 4.45759e+14 1.53108e+15 0 
332 0 37.9475 5.88362e+17 873.869 179.965 143.221 7425.3 8.93135 0.231017 5.8092e+17 1.93808e+13 0 2.48074e+15 4.94211e+15 0 
364 0 37.6863 5.84312e+17 336.113 147.534 137.583 7459.2 1.68522 -0.74179 5.82413e+17 1.93808e+13 0 6.78328e+14 1.20161e+15 0 
368 0 37.8687 5.87141e+17 773.084 175.291 144.314 7430.87 6.41202 0.890099 5.80591e+17 0 0 2.3257e+15 4.20563e+15 1.93808e+13 
400 0 37.4913 5.81288e+17 304.932 144.66 138.943 7462.06 1.01375 0.0827848 5.79699e+17 0 0 4.8452e+14 1.10471e+15 0 
404 0 38.2212 5.92607e+17 719.241 174.511 140.229 7434.68 10.2714 -0.254794 5.87141e+17 3.87616e+13 0 1.80241e+15 3.62421e+15 0 
436 0 37.57 5.82509e+17 297.216 148.463 137.789 7463.81 1.74174 0.543787 5.81037e+17 0 0 3.87616e+14 1.08533e+15 0 
440 0 37.4913 5.81288e+17 575.729 163.444 143.08 7443.86 6.57738 1.37028 5.76443e+17 3.87616e+13 0 1.55046e+15 3.25598e+15 0 
472 0 37.8525 5.8689e+17 295.006 142.726 137.755 7463.21 1.52458 -0.53043 5.85281e+17 0 0 4.26378e+14 1.18223e+15 0 
476 0 37.5487 5.8218e+17 552.47 161.958 139.42 7445.8 5.11132 0.451965 5.78207e+17 0 0 1.39542e+15 2.57765e+15 0 
508 0 37.51 5.81579e+17 271.769 142.719 137.869 7464.27 1.60723 -0.208038 5.80494e+17 0 0 3.48854e+14 7.36471e+14 0 
512 0 37.5288 5.8187e+17 398.943 170.523 139.493 7455.01 6.38584 -0.0619124 5.78788e+17 0 0 1.04656e+15 2.0156e+15 1.93808e+13 
544 0 37.5275 5.81851e+17 243.532 146.313 138.011 7466.98 1.81234 0.594613 5.8092e+17 1.93808e+13 0 2.90712e+14 6.00805e+14 1.93808e+13 
548 0 37.5562 5.82296e+17 422.968 149.438 138.923 7454.75 4.07736 -1.56086 5.79079e+17 1.93808e+13 0 9.88421e+14 2.20941e+15 0 
580 0 37.6412 5.83614e+17 223.88 142.625 136.835 7467.75 0.855118 0.759509 5.82839e+17 0 0 2.71331e+14 5.03901e+14 0 
584 0 37.8663 5.87103e+17 372.196 146.414 138.04 7458.76 5.49186 -1.36562 5.84738e+17 0 0 6.97709e+14 1.64737e+15 1.93808e+13 
616 0 37.535 5.81967e+17 194.767 142.045 137.934 7469.89 0.306496 -0.0767691 5.81327e+17 0 0 2.3257e+14 4.06997e+14 0 
620 0 37.535 5.81967e+17 312.196 149.057 138.074 7459.68 3.96422 -0.541854 5.80164e+17 0 0 6.58947e+14 1.12409e+15 1.93808e+13 
10 0 44.83 6.95073e+17 3266.5 318.96 168.393 7259.34 35.7537 2.76237 6.59141e+17 3.87616e+13 0 1.28689e+16 2.29469e+16 7.75232e+13 
46 0 40.0037 6.20244e+17 3601.82 353.664 176.374 7235.32 7.29356 -0.403609 5.84622e+17 1.35666e+14 0 1.32565e+16 2.21329e+16 9.6904e+13 
82 0 39.9525 6.19449e+17 3515.87 351.567 171.567 7241.17 11.2636 -2.26008 5.86017e+17 1.55046e+14 0 1.27526e+16 2.03498e+16 1.74427e+14 
118 0 39.3 6.09332e+17 3656.52 319.501 171.934 7237.47 19.9417 -2.21391 5.76889e+17 1.35666e+14 0 1.24812e+16 1.96715e+16 1.55046e+14 
154 0 39.2912 6.09197e+17 3219.34 333.529 170.77 7261.28 20.1043 1.93319 5.79234e+17 1.16285e+14 0 1.10471e+16 1.87219e+16 7.75232e+13 
190 0 39.005 6.04759e+17 2820.29 289.405 164.489 7294.94 19.653 -0.168663 5.79409e+17 1.16285e+14 0 9.45783e+15 1.57372e+16 3.87616e+13 
226 0 38.845 6.02278e+17 2355.33 304.852 162.959 7323.59 20.0797 -0.323123 5.80513e+17 3.87616e+13 0 7.94613e+15 1.37022e+16 7.75232e+13 
262 0 38.745 6.00727e+17 2061.48 261.774 154.32 7341.82 22.1914 -1.20217 5.81889e+17 0 0 6.70576e+15 1.21324e+16 0 
298 0 38.7375 6.00611e+17 1820.73 241.284 153.525 7360.53 20.9347 -0.505876 5.84544e+17 5.81424e+13 0 6.12433e+15 9.88421e+15 0 
334 0 38.2413 5.92917e+17 1421.74 219.585 151.776 7386.98 16.2764 -1.12454 5.79893e+17 0 0 4.98087e+15 7.92675e+15 1.16285e+14 
370 0 38.465 5.96386e+17 1159.53 201.558 149.207 7402.86 16.641 -1.44524 5.85203e+17 7.75232e+13 0 3.75988e+15 7.32594e+15 1.93808e+13 
406 0 37.9925 5.8906e+17 997.82 199.374 148.828 7412.29 14.467 -0.671462 5.79428e+17 3.87616e+13 0 3.41102e+15 6.12433e+15 5.81424e+13 
442 0 37.74 5.85145e+17 829.728 182.821 142.102 7427.02 11.9181 1.19121 5.78207e+17 1.93808e+13 0 2.28693e+15 4.59325e+15 3.87616e+13 
478 0 37.895 5.87548e+17 734.311 170.827 143.564 7433.36 10.7244 0.0751732 5.81657e+17 3.87616e+13 0 2.22879e+15 3.62421e+15 0 
514 0 37.5725 5.82548e+17 658.32 176.741 145.389 7438.45 10.5765 0.466766 5.77626e+17 1.93808e+13 0 1.62799e+15 3.27536e+15 0 
550 0 37.5237 5.81792e+17 479.361 161.497 144.08 7449.68 4.99719 1.41482 5.77877e+17 1.93808e+13 0 1.35666e+15 2.53889e+15 0 
586 0 37.8537 5.86909e+17 460.177 166.27 140.603 7452.53 6.52545 -0.943612 5.83304e+17 0 0 1.33728e+15 2.22879e+15 3.87616e+13 
622 0 37.5325 5.81928e+17 400.011 164.175 139.301 7456.48 6.20988 0.74649 5.79098e+17 0 0 1.02718e+15 1.80241e+15 0 
11 0 45.61 7.07167e+17 4768.21 404.863 187.145 7146.66 37.5318 -1.03275 6.53288e+17 1.74427e+14 0 2.08731e+16 3.27923e+16 3.87616e+13 
47 0 41.0412 6.3633e+17 5549.82 456.279 193.667 7090.63 13.4136 -0.478822 5.82587e+17 1.93808e+14 0 2.03886e+16 3.30637e+16 9.6904e+13 
83 0 40.9637 6.35128e+17 5232.12 468.565 197.334 7112.96 22.5335 -0.565854 5.83769e+17 7.75232e+13 0 1.97684e+16 3.14163e+16 9.6904e+13 
119 0 40.885 6.33907e+17 4965.39 447.43 189.252 7134.4 28.0523 0.940177 5.86715e+17 1.74427e+14 0 1.85474e+16 2.82766e+16 1.93808e+14 
155 0 40.5737 6.29082e+17 4508.9 416.104 191.253 7167.29 30.9546 -0.888448 5.85688e+17 1.35666e+14 0 1.64931e+16 2.66292e+16 1.35666e+14 
191 0 40.1388 6.22337e+17 3827.06 370.767 180.698 7216.83 31.5957 -3.43943 5.85397e+17 7.75232e+13 0 1.34697e+16 2.3257e+16 1.35666e+14 
227 0 39.7037 6.15592e+17 3426.42 360.285 172.806 7243.53 33.9362 2.15064 5.82161e+17 1.35666e+14 0 1.2927e+16 2.02917e+16 7.75232e+13 
263 0 39.475 6.12046e+17 2993.44 333.441 167.701 7275.78 33.2277 0.721319 5.84816e+17 1.16285e+14 0 9.98111e+15 1.71133e+16 1.93808e+13 
299 0 39.02 6.04991e+17 2475.95 280.268 157.57 7315.44 27.979 0.897517 5.8282e+17 5.81424e+13 0 8.0818e+15 1.39154e+16 1.16285e+14 
335 0 38.4925 5.96812e+17 1947.66 249.327 157.62 7348.89 26.3233 0.711977 5.78536e+17 9.6904e+13 0 6.55071e+15 1.15897e+16 3.87616e+13 
371 0 38.0737 5.9032e+17 1561.68 221.874 153.58 7376.32 23.1526 -1.21538 5.75106e+17 1.93808e+13 0 5.62043e+15 9.53536e+15 3.87616e+13 
407 0 38.575 5.98092e+17 1322.25 214.086 149.402 7392.77 21.1799 0.986877 5.86172e+17 1.93808e+13 0 4.57387e+15 7.28718e+15 3.87616e+13 
443 0 37.9188 5.87917e+17 1164.45 214.76 148.68 7403.22 19.0855 0.208493 5.77858e+17 1.93808e+13 0 3.8374e+15 6.18248e+15 1.93808e+13 
479 0 38.1187 5.91018e+17 880.56 188.594 145.116 7421.64 14.1176 -0.951454 5.83634e+17 1.93808e+13 0 2.94588e+15 4.36068e+15 5.81424e+13 
515 0 37.675 5.84137e+17 694.643 183.228 142.282 7435.39 11.0189 -0.799112 5.78071e+17 1.93808e+13 0 2.24817e+15 3.79864e+15 0 
551 0 37.8687 5.87141e+17 637.626 170.121 143.056 7439.54 11.5946 0.386779 5.81482e+17 1.93808e+13 0 2.03498e+15 3.60483e+15 0 
587 0 37.6625 5.83944e+17 519.011 164.239 141.508 7448.24 9.56839 -1.38982 5.79971e+17 0 0 1.64737e+15 2.3257e+15 0 
623 0 37.5012 5.81444e+17 429.867 154.38 140.598 7452.25 8.69197 -1.42124 5.78284e+17 0 0 1.25975e+15 1.87994e+15 1.93808e+13 
12 0 48.1838 7.47072e+17 7290.39 596.677 218.665 6944.79 46.6415 5.37187 6.60575e+17 1.93808e+14 0 3.46723e+16 5.12816e+16 3.48854e+14 
48 0 43.1437 6.68928e+17 8181.48 610.377 237.471 6873.93 19.7893 1.7832 5.84835e+17 3.29474e+14 0 3.20752e+16 5.13979e+16 2.90712e+14 
84 0 43.1037 6.68308e+17 8038.6 637.008 233.227 6880.87 34.8543 -0.556479 5.85882e+17 4.06997e+14 0 3.09899e+16 5.08552e+16 1.74427e+14 
120 0 42.2388 6.54897e+17 7365.31 611.671 213.138 6943.57 46.2076 -1.53203 5.8344e+17 1.16285e+14 0 2.82378e+16 4.29285e+16 1.74427e+14 
156 0 42.0213 6.51525e+17 6483.71 561.703 225.761 7003.61 54.4929 -0.283425 5.85455e+17 2.3257e+14 0 2.55245e+16 4.02152e+16 9.6904e+13 
192 0 41.1013 6.3726e+17 5937.81 510.713 203.602 7052.66 58.8149 0.353679 5.81075e+17 1.16285e+14 0 2.16871e+16 3.4304e+16 7.75232e+13 
228 0 40.9763 6.35322e+17 4742.01 431.245 187.527 7147.33 55.5502 -3.03566 5.89952e+17 1.74427e+14 0 1.69194e+16 2.8044e+16 2.3257e+14 
264 0 40.1975 6.23248e+17 4060.48 388.046 186.253 7194.25 50.4042 1.49129 5.82916e+17 1.74427e+14 0 1.6338e+16 2.37996e+16 1.93808e+13 
300 0 39.7137 6.15748e+17 3151.18 334.379 168.789 7259.94 44.6515 -1.31814 5.85417e+17 3.87616e+13 0 1.16285e+16 1.86443e+16 1.93808e+13 
336 0 39.1025 6.0627e+17 2635.49 328.802 171.31 7298.67 39.7966 -0.800476 5.8063e+17 7.75232e+13 0 1.02331e+16 1.52721e+16 5.81424e+13 
372 0 38.92 6.03441e+17 1976.64 282.242 162.064 7343.34 30.1004 2.1896 5.84428e+17 3.87616e+13 0 7.48099e+15 1.14347e+16 5.81424e+13 
408 0 38.33 5.94293e+17 1655.55 241.959 154.554 7368.22 28.45 1.96325 5.79002e+17 5.81424e+13 0 5.62043e+15 9.53536e+15 7.75232e+13 
13 0 52.7425 8.17754e+17 11109.1 925.672 284.244 6596.39 50.1196 -4.37386 6.8046e+17 3.29474e+14 0 5.72703e+16 7.94419e+16 2.5195e+14 
49 0 47.1987 7.318e+17 12333.4 970.252 306.46 6477.63 47.5871 -2.33447 5.95843e+17 4.45759e+14 0 5.62431e+16 7.90349e+16 2.3257e+14 
85 0 46.8575 7.26509e+17 11874.4 977.015 293.334 6524.48 63.1555 -3.22451 5.95979e+17 5.42663e+14 0 5.227e+16 7.74263e+16 2.90712e+14 
121 0 45.8125 7.10306e+17 10824.8 884.432 286.008 6624.7 81.1545 0.89347 5.94836e+17 4.06997e+14 0 4.67465e+16 6.81235e+16 1.93808e+14 
157 0 44.6313 6.91992e+17 9544.78 776.358 259.393 6745.37 90.9515 5.49384 5.9218e+17 2.5195e+14 0 4.02733e+16 5.88983e+16 3.87616e+14 
193 0 43.295 6.71274e+17 8135.25 700.724 238.431 6867.92 94.6675 -2.11529 5.8875e+17 3.48854e+14 0 3.32768e+16 4.86458e+16 2.5195e+14 
229 0 42.4 6.57397e+17 6983.61 599.9 214.041 6964.71 89.449 0.52056 5.88634e+17 3.29474e+14 0 2.75789e+16 4.06997e+16 1.55046e+14 
265 0 41.195 6.38714e+17 5436.82 521.147 205.508 7081.53 76.1767 -1.99637 5.84564e+17 1.16285e+14 0 2.11057e+16 3.28311e+16 9.6904e+13 
301 0 40.0988 6.21717e+17 4322.77 446.294 194.458 7169.47 67.7733 -2.01224 5.79292e+17 1.16285e+14 0 1.69194e+16 2.53501e+16 3.87616e+13 
337 0 39.8888 6.18461e+17 3510.68 388.057 180.206 7234.17 61.559 1.82194 5.84641e+17 3.87616e+13 0 1.39542e+16 1.9749e+16 7.75232e+13 
373 0 39.4462 6.116e+17 2667.79 317.166 167.298 7293.62 48.258 -2.12035 5.85513e+17 5.81424e+13 0 1.00393e+16 1.5931e+16 5.81424e+13 
409 0 38.715 6.00262e+17 2121.73 291.16 159.68 7335.35 40.8239 -1.23031 5.7999e+17 1.93808e+13 0 7.82985e+15 1.23262e+16 9.6904e+13 
445 0 38.6675 5.99526e+17 1655.9 252.85 155.265 7367.86 33.4552 -1.11767 5.84234e+17 1.93808e+13 0 6.20186e+15 9.05084e+15 1.93808e+13 
481 0 38.6962 5.99972e+17 1374.3 235.773 151.005 7387.69 28.3122 0.572781 5.86715e+17 5.81424e+13 0 4.53511e+15 8.60508e+15 5.81424e+13 
517 0 38.2062 5.92374e+17 1081.96 223.408 155.447 7405.14 23.0531 0.374192 5.81715e+17 1.93808e+13 0 4.28316e+15 6.31814e+15 3.87616e+13 
553 0 37.8963 5.87568e+17 772.646 189.074 145.139 7428.17 14.2696 0.227719 5.803e+17 3.87616e+13 0 2.79084e+15 4.4382e+15 0 
589 0 37.8837 5.87374e+17 649.013 181.25 146.196 7434.42 15.2068 -0.389556 5.8092e+17 0 0 2.59703e+15 3.8374e+15 1.93808e+13 
625 0 37.7025 5.84564e+17 587.851 185.068 143.769 7441.04 14.0124 -2.15223 5.79137e+17 1.93808e+13 0 2.38384e+15 3.02341e+15 0 
444 0 38.3488 5.94584e+17 1400.87 231.504 154.382 7388.48 23.9829 2.16226 5.8187e+17 3.87616e+13 0 4.76768e+15 7.88799e+15 1.93808e+13 
480 0 38.08 5.90417e+17 1132.4 216.021 149.511 7405.2 20.5839 0.346867 5.79777e+17 3.87616e+13 0 3.75988e+15 6.80266e+15 3.87616e+13 
516 0 38 5.89176e+17 867.093 194.342 146.946 7420.53 18.7866 -0.631674 5.81192e+17 3.87616e+13 0 2.96526e+15 4.98087e+15 0 
552 0 38.2112 5.92452e+17 761.898 191.17 142.813 7431.09 13.1613 -2.76358 5.86037e+17 0 0 2.38384e+15 4.01183e+15 1.93808e+13 
588 0 37.7212 5.84855e+17 661.713 175.239 143.76 7438.61 13.9573 1.0231 5.79118e+17 3.87616e+13 0 2.26755e+15 3.4304e+15 0 
624 0 37.7987 5.86056e+17 467.337 162.469 142.338 7450.45 11.3809 -0.562098 5.81773e+17 1.93808e+13 0 1.43418e+15 2.8296e+15 0 