ITEM: TIMESTEP
17000
ITEM: NUMBER OF SURFS
134
ITEM: BOX BOUNDS oo ao pp
-10 10
0 10
-0.5 0.5
ITEM: SURFS id f_avg_pressure[1] f_avg_pressure[2] f_avg_pressure[3] f_avg_pressure[4] f_avg_shear[1] f_avg_shear[2] f_avg_shear[3] f_avg_heat_flux[*] f_avg_fdrag[*] 
1 3.33774 3.33556 0.120739 0 0.000248907 -0.00687634 -0.0150621 7436.58 0.0258448 
5 3.00968 3.00966 -0.00999657 0 0.000368755 0.111021 0.00173308 6631.28 0.20997 
9 2.52635 2.52403 -0.108226 0 0.00582087 0.135753 0.00181171 5556.4 0.333328 
13 2.40791 2.39975 -0.198103 0 0.0136241 0.165038 -0.0111817 5300.32 0.467359 
17 2.32182 2.3046 -0.282255 0 0.0276169 0.225492 -0.00195173 5161.36 0.595529 
21 2.28121 2.25157 -0.36654 0 0.0449989 0.276418 -0.00293641 5136.83 0.727432 
25 2.33311 2.28619 -0.465568 0 0.0683288 0.335531 0.00110463 5335.96 0.889421 
29 2.2056 2.14217 -0.525161 0 0.0971518 0.396288 -0.0131075 5102.05 0.981407 
33 2.12182 2.03924 -0.586224 0 0.121141 0.421401 -0.000810934 4952.28 1.0763 
37 2.06022 1.956 -0.646968 0 0.155452 0.469983 0.000494928 4873.48 1.17702 
41 2.0276 1.89838 -0.712264 0 0.199037 0.530488 -0.00426621 4914.94 1.29187 
45 1.93568 1.78404 -0.751026 0 0.240535 0.571384 -0.00131955 4854.6 1.36365 
49 1.83978 1.66613 -0.780252 0 0.31997 0.683256 -0.00931172 4981.59 1.4503 
53 0.532606 0.251707 -0.469375 0 0.525792 0.281961 0.0153622 2260.08 0.588628 
57 0.0211913 -0.00589574 -0.0203546 0 0.0311544 -0.00902392 -0.000728718 95.6367 0.0192754 
61 0.00236179 -0.00126878 -0.00199205 0 0.00278097 -0.00177125 0.000126657 9.69435 0.00114752 
65 0.00297842 -0.00160003 -0.00251215 0 0.00439864 -0.00280158 -0.00191489 13.9184 0.00202863 
69 0.00394057 -0.00211687 -0.00332369 0 0.00490091 -0.00312141 -0.000585089 20.0395 0.00192352 
73 0.00177418 -0.000953102 -0.00149643 0 0.00467986 -0.00298069 0.000482387 16.1422 0.00244819 
77 0.00103672 -0.000556923 -0.000874423 0 0.00302747 -0.0019282 -0.00192031 13.9016 0.00153904 
81 0.00119622 -0.000642619 -0.00100895 0 0.00130669 -0.000832257 0.00102513 2.8675 0.000391122 
85 0.000546071 -0.000293354 -0.000460582 0 0.000734348 -0.000467721 6.69132e-06 0.98494 0.000244751 
89 0.00270253 -0.00145183 -0.00227944 0 0.00386656 -0.00246271 0.00153421 16.8816 0.00125816 
93 0.000690414 -0.000370905 -0.000582324 0 0.00153766 -0.0009794 -0.000432469 2.6789 0.000568275 
97 0 0 0 0 0 0 0 0 0 
101 0.000371699 -0.000199679 -0.00031351 0 0.000839527 -0.000534706 -0.000140729 1.38103 0.000268161 
105 0.00222037 -0.00119279 -0.00187278 0 0.00463364 -0.00295122 -0.000338839 15.6353 0.00132516 
109 0 0 0 0 0 0 0 0 0 
113 0.000851528 -0.000457447 -0.000718222 0 0.00143604 -0.00091464 0.00105764 3.11588 0.000310389 
117 0 0 0 0 0 0 0 0 0 
121 0 0 0 0 0 0 0 0 0 
125 0.000245514 -0.000245514 0 0 0 9.80554e-05 0.000356289 0.0530531 -3.76206e-05 
129 0 0 0 0 0 0 0 0 0 
133 0 0 0 0 0 0 0 0 0 
2 3.22311 3.222 0.0847421 0 -0.000399732 0.0151983 -0.00151767 7092 0.0748875 
6 2.84775 2.8475 -0.0375998 0 0.00175933 0.133237 0.000808118 6280.25 0.242932 
10 2.51157 2.50808 -0.132357 0 0.00801974 0.151969 -0.00393375 5520.45 0.370485 
14 2.43026 2.41993 -0.223816 0 0.0174868 0.18907 0.00297883 5402.51 0.509664 
18 2.28265 2.26287 -0.299866 0 0.0311616 0.235154 -0.00357952 5030.51 0.621061 
22 2.33619 2.302 -0.398183 0 0.0523967 0.302919 0.0128936 5334.36 0.781749 
26 2.29277 2.24203 -0.479676 0 0.0742743 0.347161 -0.00758414 5245.42 0.910125 
30 2.17654 2.10872 -0.539078 0 0.101099 0.395471 0.0137058 5000.54 1.00172 
34 2.15282 2.06305 -0.615169 0 0.132637 0.444818 -0.00981872 5031.68 1.12654 
38 2.11953 2.00564 -0.685431 0 0.17163 0.502206 0.000544671 5120.26 1.24572 
42 1.99906 1.86463 -0.720689 0 0.213849 0.55329 -0.00165483 4939.45 1.31031 
46 1.87635 1.72208 -0.745067 0 0.255867 0.591388 -0.0120954 4773.24 1.36048 
50 1.77886 1.56286 -0.849595 0 0.403182 0.741664 0.00246723 5098.37 1.42802 
54 0.292698 0.0861307 -0.279738 0 0.41563 0.127972 0.00190974 1532.45 0.382709 
58 0.0065776 -0.00301111 -0.00584791 0 0.0110699 -0.00569991 0.00130974 31.6287 0.0061058 
62 0.00350261 -0.00188162 -0.00295428 0 0.0042501 -0.00270695 -0.000909228 11.8734 0.00177719 
66 0.00265273 -0.00142504 -0.00223747 0 0.00310102 -0.00197503 -0.00257448 12.9989 0.00120066 
70 0.00289858 -0.00155714 -0.00244481 0 0.00603048 -0.00384092 -0.00110031 23.7114 0.00305262 
74 0.00449191 -0.00241309 -0.0037887 0 0.00496077 -0.00315961 0.00109165 13.4947 0.00165199 
78 0.00131866 -0.000708415 -0.00111221 0 0.00362877 -0.00231132 0.000515834 18.9519 0.00179444 
82 0.000572979 -0.000307817 -0.000483274 0 0.000822269 -0.000523737 -5.54537e-05 1.90016 0.000298631 
86 0.00102128 -0.000548641 -0.000861392 0 0.00410051 -0.00261171 0.000199379 12.1538 0.00194116 
90 0.00220266 -0.00118329 -0.00185783 0 0.00422081 -0.00268831 0.00037076 11.2453 0.00155682 
94 0.000535548 -0.000287699 -0.000451708 0 0.00113901 -0.00072545 0.000177149 3.58309 0.0004074 
98 0.00144671 -0.000777181 -0.00122023 0 0.00285735 -0.00181988 0.00171203 9.46255 0.000924806 
102 0 0 0 0 0 0 0 0 0 
106 0.000593837 -0.000319013 -0.000500873 0 0.000606868 -0.000386522 -0.000377168 1.60114 0.000108416 
110 0.00151776 -0.000815348 -0.00128016 0 0.00236403 -0.00150568 -0.00198976 7.24406 0.00053067 
114 0.000259316 -0.000139307 -0.000218719 0 0.0018696 -0.00119079 0.000123613 2.70665 0.000534115 
118 0 0 0 0 0 0 0 0 0 
122 0 0 0 0 0 0 0 0 0 
126 0 0 0 0 0 0 0 0 0 
130 0 0 0 0 0 0 0 0 0 
134 0 0 0 0 0 0 0 0 0 
3 3.25131 3.25088 0.0533937 0 -0.000993955 0.060517 -0.014961 7242.37 0.125924 
7 2.74387 2.74314 -0.063354 0 0.00338634 0.146624 0.00315851 6036.3 0.276752 
11 2.43654 2.43177 -0.152441 0 0.00945061 0.150758 0.00897317 5320.74 0.397248 
15 2.39894 2.38644 -0.244545 0 0.0207945 0.202927 -0.000888428 5359.22 0.540502 
19 2.2666 2.24391 -0.319945 0 0.0334995 0.234946 -0.00152493 5016.31 0.651544 
23 2.25703 2.22011 -0.406593 0 0.0555374 0.303249 -0.000342801 5099.8 0.790335 
27 2.19427 2.14106 -0.480276 0 0.0829032 0.369581 -0.0061343 5006.99 0.907536 
31 2.13996 2.06794 -0.55049 0 0.108171 0.406352 0.00229966 4924.15 1.01909 
35 2.09635 2.00292 -0.618863 0 0.135463 0.438422 -0.00217121 4868.45 1.12888 
39 2.0376 1.92151 -0.67797 0 0.179041 0.507439 0.00336544 4888.86 1.23257 
43 1.97459 1.83468 -0.73003 0 0.220392 0.55388 -0.000846393 4868.4 1.32522 
47 1.91845 1.75311 -0.779139 0 0.2851 0.641492 0.00170493 4992.51 1.43084 
51 1.26719 0.976141 -0.80804 0 0.516532 0.623989 0.008494 3963.25 1.10236 
55 0.123882 0.0130024 -0.123197 0 0.202386 0.02136 -0.00211047 682.736 0.164924 
59 0.0050853 -0.00273187 -0.00428919 0 0.00721451 -0.00459505 0.00153229 20.6005 0.00347778 
63 0.00518036 -0.00278289 -0.0043694 0 0.00816586 -0.00520087 0.000128915 27.9561 0.00399346 
67 0.00203675 -0.00109416 -0.0017179 0 0.00404084 -0.00257369 0.000726107 11.444 0.00208591 
71 0.00239148 -0.00128474 -0.00201708 0 0.00327772 -0.00208769 0.000703551 11.4459 0.00134312 
75 0.00185461 -0.00099632 -0.00156427 0 0.00299763 -0.00190926 0.000204102 7.34287 0.00128074 
79 0.00273212 -0.00146772 -0.00230441 0 0.0045922 -0.00292485 -0.00126662 13.8145 0.00189331 
83 0.00130814 -0.000702731 -0.00110336 0 0.0023776 -0.0015143 0.000411518 5.19369 0.000958017 
87 0.00095527 -0.000513179 -0.000805722 0 0.00203884 -0.00129858 0.000537794 6.22477 0.000820824 
91 0.000447825 -0.000240576 -0.000377718 0 0.00140146 -0.00089262 0.000599015 3.39603 0.000585129 
95 0.00068258 -0.000366686 -0.000575723 0 0.00235338 -0.0014989 -0.00105376 4.83202 0.000933875 
99 0.00193637 -0.00104023 -0.00163324 0 0.00443865 -0.00282704 0.00115961 12.9065 0.00148201 
103 0 0 0 0 0 0 0 0 0 
107 0 0 0 0 0 0 0 0 0 
111 0.000968313 -0.000520197 -0.000816716 0 0.00298044 -0.00189836 0.000271568 16.7942 0.000822137 
115 0.002975 -0.00159819 -0.00250926 0 0.00838866 -0.00534289 0.00588565 16.5046 0.00203843 
119 0 0 0 0 0 0 0 0 0 
123 0 0 0 0 0 0 0 0 0 
127 0 0 0 0 0 0 0 0 0 
131 0 0 0 0 0 0 0 0 0 
4 3.15667 3.1566 0.0206519 0 -0.000551134 0.0842399 0.00194465 7007.58 0.171221 
8 2.60237 2.60095 -0.0857559 0 0.00516255 0.156579 -0.00261994 5717.7 0.302997 
12 2.45416 2.44772 -0.177701 0 0.0123111 0.169577 -0.00314508 5412.76 0.438365 
16 2.36006 2.34528 -0.263767 0 0.0247557 0.220114 0.0079876 5255.45 0.568686 
20 2.32375 2.29713 -0.350682 0 0.039975 0.261856 0.00149599 5247.88 0.70447 
24 2.26182 2.22069 -0.429408 0 0.0574102 0.296897 0.011916 5084.49 0.825895 
28 2.20256 2.1443 -0.503228 0 0.0871183 0.371219 -0.00959488 5051.45 0.944303 
32 2.14003 2.06248 -0.57089 0 0.112847 0.407686 1.92913e-06 4950.68 1.05126 
36 2.09155 1.99214 -0.637151 0 0.147415 0.460913 -0.00242379 4889.78 1.16112 
40 2.02337 1.90135 -0.692024 0 0.190521 0.523462 -0.00650866 4924.28 1.25802 
44 1.94999 1.8046 -0.738825 0 0.230742 0.563596 -0.00422611 4838.98 1.34177 
48 1.88634 1.71612 -0.783062 0 0.291428 0.638679 -0.0071839 4938.12 1.43771 
52 0.91097 0.576899 -0.705021 0 0.619374 0.506817 -0.00545794 3345.17 0.8959 
56 0.0554306 -0.00489471 -0.0552141 0 0.0840519 -0.00745117 0.00483281 257.218 0.0606186 
60 0.00421664 -0.00226523 -0.00355651 0 0.00510468 -0.00325129 0.000943148 18.8316 0.00217888 
64 0.00354299 -0.00190338 -0.00298829 0 0.00399438 -0.0025442 0.00115114 10.3366 0.00153348 
68 0.00255912 -0.00137481 -0.00215847 0 0.00328705 -0.00209365 -0.000374197 6.70336 0.00133741 
72 0.00133028 -0.000714633 -0.00112202 0 0.00251768 -0.00160355 6.65011e-06 10.1647 0.00119977 
76 0.00126704 -0.000680665 -0.00106868 0 0.00178923 -0.0011396 0.000435368 5.31277 0.000699994 
80 0.00161871 -0.000869571 -0.00136531 0 0.00390518 -0.00248722 0.00129769 10.2295 0.00181371 
84 0.00345109 -0.00185396 -0.00291082 0 0.00743807 -0.00473745 0.00246289 21.6935 0.0031466 
88 0.000312229 -0.000167732 -0.000263349 0 0.000828638 -0.000527776 -0.000246756 1.72765 0.000349961 
92 0.000784004 -0.000421165 -0.000661273 0 0.003599 -0.00229221 -0.000229901 12.3755 0.00157478 
96 0.000297663 -0.000159906 -0.000251064 0 0.000223428 -0.000142304 0.000173987 0.12888 2.932e-05 
100 0.000512125 -0.000275123 -0.000431949 0 0.000442028 -0.000281543 0.000252521 0.739391 7.13686e-05 
104 0.00176327 -0.000947266 -0.00148722 0 0.000798734 -0.000508743 0.000131491 1.65757 -5.84659e-05 
108 0 0 0 0 0 0 0 0 0 
112 0.00131904 -0.000708593 -0.00111254 0 0.00252096 -0.00160563 0.0014476 8.39016 0.000590235 
116 0 0 0 0 0 0 0 0 0 
120 0 0 0 0 0 0 0 0 0 
124 0 0 0 0 0 0 0 0 0 
128 0 0 0 0 0 0 0 0 0 
132 0 0 0 0 0 0 0 0 0 
