ITEM: TIMESTEP
14000
ITEM: NUMBER OF SURFS
134
ITEM: BOX BOUNDS oo ao pp
-10 10
0 10
-0.5 0.5
ITEM: SURFS id f_avg_pressure[1] f_avg_pressure[2] f_avg_pressure[3] f_avg_pressure[4] f_avg_shear[1] f_avg_shear[2] f_avg_shear[3] f_avg_heat_flux[*] f_avg_fdrag[*] 
1 3.32699 3.32481 0.12035 0 0.00192342 -0.0531368 -0.0132181 7482.25 0.0257745 
5 3.10263 3.10261 -0.0103053 0 0.000345928 0.104148 -0.0077235 6924.94 0.216453 
9 2.54954 2.5472 -0.10922 0 0.00503124 0.117338 0.0164001 5627 0.336276 
13 2.44186 2.43358 -0.200896 0 0.0143206 0.173474 -0.0136715 5444.66 0.474046 
17 2.37094 2.35335 -0.288225 0 0.0243792 0.199055 -0.00280033 5334.66 0.60715 
21 2.31873 2.2886 -0.372568 0 0.0464932 0.285597 -0.0148232 5308.16 0.739635 
25 2.32457 2.27782 -0.463864 0 0.0693888 0.340736 0.00854425 5364.52 0.886662 
29 2.084 2.02407 -0.496209 0 0.0893242 0.364359 -0.00813662 4645.57 0.926218 
33 2.18687 2.10175 -0.604195 0 0.124644 0.433588 -0.00901674 5181.01 1.1092 
37 2.09979 1.99357 -0.659394 0 0.160211 0.484373 0.0124604 4950.16 1.20062 
41 1.97334 1.84758 -0.693204 0 0.194524 0.518459 -0.0259332 4764.25 1.2578 
45 2.00313 1.84621 -0.777197 0 0.248956 0.59139 0.00198018 5054.84 1.4112 
49 1.86202 1.68627 -0.789685 0 0.322011 0.687616 -0.0110257 5042.67 1.4665 
53 0.511985 0.241961 -0.451202 0 0.523838 0.280913 0.023918 2251.46 0.579771 
57 0.0187669 -0.00522124 -0.0180259 0 0.0254998 -0.00738606 0.000639365 79.2345 0.015475 
61 0.00363978 -0.00195532 -0.00306997 0 0.00475709 -0.00302987 -0.00208859 17.771 0.00212611 
65 0.00342873 -0.00184194 -0.00289196 0 0.00574023 -0.00365605 -0.00166891 18.5255 0.00282575 
69 0.00544097 -0.00292289 -0.00458922 0 0.00886376 -0.00564536 -0.00141557 44.909 0.0041046 
73 0 0 0 0 0 0 0 0 0 
77 0 0 0 0 0 0 0 0 0 
81 0.00478488 -0.00257048 -0.0040358 0 0.00522678 -0.00332903 0.00410053 11.47 0.00156449 
85 0 0 0 0 0 0 0 0 0 
89 0 0 0 0 0 0 0 0 0 
93 0.00276166 -0.00148362 -0.00232929 0 0.00615065 -0.0039176 -0.00172988 10.7156 0.0022731 
97 0 0 0 0 0 0 0 0 0 
101 0.0014868 -0.000798715 -0.00125404 0 0.00335811 -0.00213882 -0.000562918 5.52413 0.00107264 
105 0.00324602 -0.00174378 -0.00273786 0 0.0120742 -0.00769019 0.00204862 47.978 0.00397852 
109 0 0 0 0 0 0 0 0 0 
113 0 0 0 0 0 0 0 0 0 
117 0 0 0 0 0 0 0 0 0 
121 0 0 0 0 0 0 0 0 0 
125 0.000982058 -0.000982058 0 0 0 0.000392222 0.00142516 0.212213 -0.000150482 
129 0 0 0 0 0 0 0 0 0 
133 0 0 0 0 0 0 0 0 0 
2 3.21838 3.21726 0.0846175 0 0.000111619 -0.00424389 -0.00855906 7080.03 0.0747893 
6 2.84448 2.84423 -0.0375567 0 0.00199972 0.151442 0.0023996 6225.54 0.242674 
10 2.60471 2.60109 -0.137265 0 0.00861482 0.163246 -0.00773328 5788.39 0.384267 
14 2.43737 2.42701 -0.224471 0 0.0172402 0.186404 0.0205262 5393.18 0.511093 
18 2.27382 2.25411 -0.298705 0 0.0285869 0.215724 -0.0178157 4943.62 0.617992 
22 2.34171 2.30744 -0.399124 0 0.054519 0.315189 -0.00681629 5322.14 0.784259 
26 2.2466 2.19688 -0.470017 0 0.073602 0.344019 0.00665538 5169.65 0.892123 
30 2.17826 2.11039 -0.539505 0 0.103621 0.405337 0.0200599 5071.67 1.00362 
34 2.1647 2.07444 -0.618563 0 0.136441 0.457573 -0.0184754 5113.53 1.13433 
38 2.23814 2.11788 -0.72379 0 0.185815 0.543713 0.0122449 5461.43 1.31806 
42 2.03022 1.89369 -0.731922 0 0.219421 0.567705 -0.0368679 5124.98 1.33214 
46 1.93261 1.77372 -0.767406 0 0.261309 0.603968 -0.0122256 4908.1 1.39974 
50 1.77191 1.55675 -0.846278 0 0.402566 0.740532 0.00748939 5079.75 1.42314 
54 0.288563 0.0849139 -0.275786 0 0.40868 0.125832 0.00107696 1451.32 0.37648 
58 0.0062581 -0.00286485 -0.00556385 0 0.0128476 -0.00661529 -0.00018298 39.2605 0.00756355 
62 0.00650592 -0.00349503 -0.00548742 0 0.00919298 -0.00585516 -0.00122179 26.2629 0.00427547 
66 0.00173397 -0.000931484 -0.00146253 0 0.00210692 -0.00134189 -0.00361551 12.9208 0.000842072 
70 0.00176306 -0.000947128 -0.00148705 0 0.00444002 -0.00282793 0.0013987 10.2276 0.00238356 
74 0.00219033 -0.00117666 -0.00184743 0 0.00160925 -0.00102496 0.000671168 3.36165 0.0002805 
78 0.00338436 -0.00181815 -0.00285451 0 0.0120261 -0.0076599 -0.00109065 66.2957 0.00627235 
82 0.00229192 -0.00123127 -0.0019331 0 0.00328908 -0.00209495 -0.000221815 7.60065 0.00119453 
86 0 0 0 0 0 0 0 0 0 
90 0.000738918 -0.000396953 -0.00062324 0 0.00173634 -0.0011059 0.000948704 3.75922 0.000686473 
94 0 0 0 0 0 0 0 0 0 
98 0 0 0 0 0 0 0 0 0 
102 0 0 0 0 0 0 0 0 0 
106 0 0 0 0 0 0 0 0 0 
110 0 0 0 0 0 0 0 0 0 
114 0 0 0 0 0 0 0 0 0 
118 0 0 0 0 0 0 0 0 0 
122 0 0 0 0 0 0 0 0 0 
126 0 0 0 0 0 0 0 0 0 
130 0 0 0 0 0 0 0 0 0 
134 0 0 0 0 0 0 0 0 0 
3 3.19263 3.19219 0.0524299 0 -0.00113994 0.0694052 -0.0142706 7079.86 0.123644 
7 2.69744 2.69672 -0.0622818 0 0.00306071 0.132525 -0.0104663 5797.66 0.272042 
11 2.42193 2.41719 -0.151527 0 0.0100087 0.159661 -0.0110794 5246.06 0.394966 
15 2.36784 2.3555 -0.241375 0 0.0217423 0.212177 -0.00865328 5245.81 0.533769 
19 2.23581 2.21343 -0.315599 0 0.0343545 0.240942 -0.0152681 4931.09 0.643069 
23 2.28886 2.25141 -0.412326 0 0.0592654 0.323605 -0.00223101 5314.62 0.802502 
27 2.13022 2.07856 -0.466256 0 0.0815691 0.363634 -0.0140622 4920.57 0.881487 
31 2.08172 2.01166 -0.535507 0 0.0993395 0.373174 0.0242688 4764.22 0.988594 
35 2.10164 2.00797 -0.620423 0 0.13512 0.437311 -0.0125898 4853.25 1.13136 
39 2.05121 1.93434 -0.682497 0 0.180685 0.512099 0.00895297 4871.36 1.24107 
43 1.93789 1.80058 -0.716461 0 0.21904 0.550481 0.00520741 4818.65 1.30236 
47 1.97361 1.80352 -0.801543 0 0.287468 0.64682 -0.00144341 5175 1.46789 
51 1.25155 0.96409 -0.798064 0 0.505602 0.610786 0.00513022 3910.1 1.08539 
55 0.122544 0.012862 -0.121867 0 0.193774 0.0204511 -0.00156595 637.445 0.158222 
59 0.00508514 -0.00273178 -0.00428906 0 0.00522425 -0.00332742 0.00175104 16.7962 0.00193374 
63 0.0022183 -0.00119167 -0.00187103 0 0.00355091 -0.00226159 -0.000874108 9.89563 0.00175025 
67 0.000432907 -0.000232561 -0.000365135 0 0.00201701 -0.00128467 -0.000354639 11.3905 0.00126318 
71 0 0 0 0 0 0 0 0 0 
75 0 0 0 0 0 0 0 0 0 
79 0.00377591 -0.00202845 -0.00318479 0 0.00781828 -0.00497961 -0.0022939 23.7305 0.0035084 
83 0.00382389 -0.00205419 -0.00322529 0 0.00499878 -0.00318373 0.0032353 10.9715 0.00168429 
87 0.000471008 -0.000253029 -0.000397271 0 0.00315435 -0.00200906 -0.000447031 10.1951 0.00156094 
91 0 0 0 0 0 0 0 0 0 
95 0 0 0 0 0 0 0 0 0 
99 0.00027481 -0.00014763 -0.000231789 0 0.00135818 -0.000865042 0.00125198 2.388 0.000527907 
103 0 0 0 0 0 0 0 0 0 
107 0 0 0 0 0 0 0 0 0 
111 0.00387325 -0.00208079 -0.00326686 0 0.0119218 -0.00759342 0.00108627 67.1768 0.00328855 
115 0.00207293 -0.00111359 -0.00174841 0 0.00276552 -0.00176141 0.000321145 7.69224 0.000495894 
119 0 0 0 0 0 0 0 0 0 
123 0 0 0 0 0 0 0 0 0 
127 0 0 0 0 0 0 0 0 0 
131 0 0 0 0 0 0 0 0 0 
4 3.11179 3.11172 0.0203582 0 -0.000392245 0.0599541 0.0201631 6836.87 0.168794 
8 2.58589 2.58449 -0.0852129 0 0.00468205 0.142005 -0.0183352 5668.85 0.301026 
12 2.49057 2.48403 -0.180338 0 0.0129955 0.179004 -0.012447 5481.65 0.444958 
16 2.41358 2.39846 -0.269749 0 0.0255819 0.227461 -0.00249588 5459.95 0.581646 
20 2.37519 2.34799 -0.358445 0 0.0386512 0.253184 0.00643101 5462.55 0.7194 
24 2.25373 2.21274 -0.427871 0 0.0635816 0.328813 0.00399661 5046.03 0.825251 
28 2.21088 2.15241 -0.505131 0 0.0887307 0.378089 -0.0057231 5097.68 0.948416 
32 2.12531 2.04829 -0.566964 0 0.103965 0.375597 -0.00286918 4886.51 1.04011 
36 2.2117 2.10658 -0.673755 0 0.158894 0.496804 0.00322214 5312.36 1.22946 
40 1.99469 1.87439 -0.682212 0 0.187589 0.515406 0.00165 4767.08 1.24005 
44 1.92366 1.78024 -0.728848 0 0.23195 0.566545 -0.0046893 4752.93 1.3265 
48 1.92104 1.74769 -0.797469 0 0.297193 0.651313 -0.0129816 5084.97 1.46445 
52 0.885911 0.561029 -0.685627 0 0.610132 0.499254 0.000596956 3257.74 0.877094 
56 0.0535307 -0.00472694 -0.0533216 0 0.0781488 -0.00692786 0.00248303 224.017 0.0562265 
60 0.00471007 -0.00253031 -0.0039727 0 0.00336013 -0.00214015 0.00371315 16.191 0.000636771 
64 0.00616625 -0.00331267 -0.00520085 0 0.00720046 -0.0045863 0.00561578 20.9341 0.0028512 
68 0 0 0 0 0 0 0 0 0 
72 0 0 0 0 0 0 0 0 0 
76 0.00116215 -0.000624317 -0.000980213 0 0.000954484 -0.00060793 -0.00149733 7.46519 0.000208481 
80 0.0016618 -0.00089272 -0.00140166 0 0.00139527 -0.000888651 0.00122298 6.5126 0.000300261 
84 0.00454804 -0.00244325 -0.00383604 0 0.0114113 -0.00726805 0.00139505 22.0444 0.00505339 
88 0 0 0 0 0 0 0 0 0 
92 0.00188981 -0.0010152 -0.00159397 0 0.0121024 -0.007708 -0.00114803 42.1437 0.00549424 
96 0 0 0 0 0 0 0 0 0 
100 0 0 0 0 0 0 0 0 0 
104 0.00538156 -0.00289108 -0.00453904 0 0.000908263 -0.000578506 0.00222274 4.24979 -0.000780486 
108 0 0 0 0 0 0 0 0 0 
112 0 0 0 0 0 0 0 0 0 
116 0 0 0 0 0 0 0 0 0 
120 0 0 0 0 0 0 0 0 0 
124 0 0 0 0 0 0 0 0 0 
128 0 0 0 0 0 0 0 0 0 
132 0 0 0 0 0 0 0 0 0 
