ITEM: TIMESTEP
20000
ITEM: NUMBER OF SURFS
134
ITEM: BOX BOUNDS oo ao pp
-10 10
0 10
-0.5 0.5
ITEM: SURFS id f_avg_pressure[1] f_avg_pressure[2] f_avg_pressure[3] f_avg_pressure[4] f_avg_shear[1] f_avg_shear[2] f_avg_shear[3] f_avg_heat_flux[*] f_avg_fdrag[*] 
1 3.37362 3.37141 0.122037 0 0.000230951 -0.00638029 -0.00057383 7502.75 0.0261224 
5 3.00229 3.00228 -0.00997203 0 0.000369654 0.111292 0.000510866 6663.83 0.209455 
9 2.53683 2.5345 -0.108675 0 0.00609552 0.142158 0.00380639 5582.3 0.334743 
13 2.4091 2.40093 -0.198201 0 0.0141224 0.171074 -0.00393912 5326.4 0.467685 
17 2.33051 2.31323 -0.283311 0 0.0281168 0.229573 0.00288403 5181.05 0.597859 
21 2.2898 2.26005 -0.367921 0 0.0452456 0.277934 0.00271253 5183.35 0.730196 
25 2.29833 2.2521 -0.458627 0 0.0677375 0.332627 -0.00245311 5221.79 0.876322 
29 2.20218 2.13884 -0.524347 0 0.0945231 0.385566 -0.0130418 5102.1 0.978799 
33 2.13433 2.05126 -0.58968 0 0.122029 0.424489 -0.00399941 4975.58 1.08274 
37 2.07868 1.97352 -0.652764 0 0.157247 0.475409 0.000237974 4916.27 1.18779 
41 2.05083 1.92012 -0.720424 0 0.203657 0.5428 -0.00476545 4991.49 1.30811 
45 1.9096 1.76001 -0.740909 0 0.240257 0.570724 0.00168027 4786 1.34728 
49 1.81652 1.64506 -0.770386 0 0.316212 0.675231 -0.00744136 4899.79 1.43217 
53 0.542377 0.256325 -0.477986 0 0.53116 0.284839 0.00534884 2264.7 0.596188 
57 0.0203724 -0.00566792 -0.0195681 0 0.0308199 -0.00892705 -0.000999302 90.957 0.019194 
61 0.00398703 -0.00214187 -0.00336286 0 0.00565097 -0.0035992 0.000116345 18.3124 0.00266286 
65 0.00205176 -0.00110222 -0.00173056 0 0.00323973 -0.00206344 -0.00083547 10.3136 0.00154942 
69 0.00305937 -0.00164349 -0.00258045 0 0.00409703 -0.00260941 -0.000452703 15.9941 0.00169517 
73 0.00168006 -0.00090254 -0.00141704 0 0.00379348 -0.00241613 0.000389166 12.869 0.00189912 
77 0.000759218 -0.000407851 -0.000640367 0 0.00220608 -0.00140506 -0.00110894 8.66059 0.00112022 
81 0.00106272 -0.000570901 -0.000896349 0 0.00132907 -0.000846507 0.000690159 3.32357 0.000446539 
85 0.00127365 -0.000684218 -0.00107426 0 0.00223353 -0.00142258 0.00096697 5.66036 0.000859867 
89 0.00263094 -0.00141337 -0.00221906 0 0.00323976 -0.00206348 0.000639282 12.477 0.000951613 
93 0.000394522 -0.000211946 -0.000332756 0 0.000878665 -0.000559657 -0.000247125 1.5308 0.000324728 
97 0.000236624 -0.000127119 -0.000199579 0 6.78577e-05 -4.3221e-05 1.92324e-05 0.213223 -2.68502e-05 
101 0.0010092 -0.000542146 -0.000851209 0 0.00143912 -0.000916595 -0.000509765 4.76316 0.000375923 
105 0.00144793 -0.000777835 -0.00122126 0 0.0035255 -0.00224543 -0.000134866 10.9925 0.0010582 
109 0.000426055 -0.000228879 -0.000359357 0 0.00119847 -0.000763321 0.000435514 2.89629 0.000340475 
113 0.000486588 -0.000261398 -0.000410412 0 0.000820597 -0.000522651 0.000604365 1.7805 0.000177365 
117 0 0 0 0 0 0 0 0 0 
121 0 0 0 0 0 0 0 0 0 
125 0.000140294 -0.000140294 0 0 0 5.60317e-05 0.000203594 0.0303161 -2.14975e-05 
129 0 0 0 0 0 0 0 0 0 
133 0 0 0 0 0 0 0 0 0 
2 3.26479 3.26366 0.0858379 0 -0.000531005 0.0201895 0.00830232 7199.26 0.0758529 
6 2.81479 2.81454 -0.0371647 0 0.00167395 0.126771 -0.000662877 6182.96 0.240115 
10 2.49517 2.4917 -0.131492 0 0.00837881 0.158774 -0.00750913 5506.33 0.368125 
14 2.41187 2.40162 -0.222122 0 0.0174347 0.188507 -0.0010442 5365.92 0.505825 
18 2.30716 2.28717 -0.303086 0 0.0311938 0.235397 -0.0036856 5135.42 0.627647 
22 2.35247 2.31805 -0.400959 0 0.0523256 0.302508 0.00373317 5378.69 0.787054 
26 2.25707 2.20712 -0.472207 0 0.0727058 0.33983 -0.00341822 5130.67 0.895792 
30 2.17602 2.10822 -0.538949 0 0.10095 0.394889 0.0118551 4980.2 1.00142 
34 2.13913 2.04994 -0.611257 0 0.133649 0.448209 -0.00342684 5020.57 1.12032 
38 2.12131 2.00732 -0.686008 0 0.172836 0.505736 0.00653251 5095.08 1.24738 
42 2.00676 1.87182 -0.723466 0 0.215146 0.556644 -0.000612723 4940.65 1.31566 
46 1.86756 1.71402 -0.741577 0 0.25167 0.581688 -0.00640955 4731.01 1.35204 
50 1.77021 1.55526 -0.845465 0 0.400709 0.737115 0.00493507 5056.81 1.42071 
54 0.295089 0.0868345 -0.282024 0 0.414706 0.127687 5.01518e-05 1527.04 0.382541 
58 0.00582716 -0.00266757 -0.00518072 0 0.00926376 -0.00476994 0.00012832 26.8141 0.00499767 
62 0.00348084 -0.00186993 -0.00293592 0 0.00490777 -0.00312584 -0.000920496 15.2282 0.00227945 
66 0.00234678 -0.00126068 -0.00197941 0 0.00297266 -0.00189328 -0.00121389 11.7159 0.00122645 
70 0.00186966 -0.0010044 -0.00157697 0 0.0036838 -0.00234628 -0.000810134 14.2174 0.00182843 
74 0.00333064 -0.00178925 -0.00280922 0 0.00488116 -0.0031089 0.000466685 14.1915 0.00200488 
78 0.00112279 -0.00060319 -0.000947009 0 0.00285416 -0.00181794 0.000167407 13.8472 0.00138313 
82 0.00145718 -0.000782831 -0.00122905 0 0.00314746 -0.00200475 -0.00184405 11.4599 0.00137263 
86 0.00124537 -0.000669028 -0.0010504 0 0.00412119 -0.00262489 0.000290836 14.6775 0.00188667 
90 0.00184139 -0.000989211 -0.00155312 0 0.00322231 -0.00205235 0.000637319 8.50845 0.00114453 
94 0.000582364 -0.000312849 -0.000491196 0 0.000748377 -0.000476652 9.84123e-05 1.96196 0.000208425 
98 0.00155197 -0.000833727 -0.00130901 0 0.00289047 -0.00184098 0.000755262 10.7273 0.000914393 
102 0 0 0 0 0 0 0 0 0 
106 0.000339335 -0.000182293 -0.000286213 0 0.000346782 -0.00022087 -0.000215525 0.914936 6.19519e-05 
110 0.00113889 -0.000611818 -0.000960602 0 0.0014145 -0.000900909 -0.00108483 4.11045 0.000275044 
114 0.00014818 -7.9604e-05 -0.000124983 0 0.00106834 -0.000680451 7.06363e-05 1.54665 0.000305209 
118 0 0 0 0 0 0 0 0 0 
122 0 0 0 0 0 0 0 0 0 
126 0 0 0 0 0 0 0 0 0 
130 0 0 0 0 0 0 0 0 0 
134 0 0 0 0 0 0 0 0 0 
3 3.20628 3.20585 0.0526542 0 -0.000957942 0.0583243 -0.00126855 7125.58 0.12418 
7 2.73052 2.72979 -0.0630456 0 0.00344611 0.149212 0.00393158 6002.91 0.275413 
11 2.41243 2.4077 -0.150932 0 0.00985081 0.157142 0.00519496 5265.62 0.393397 
15 2.39905 2.38655 -0.244556 0 0.020758 0.202571 -0.00205499 5372.02 0.540519 
19 2.29147 2.26853 -0.323456 0 0.0343519 0.240924 0.0016965 5099.37 0.658832 
23 2.27282 2.23564 -0.409437 0 0.0554452 0.302746 0.0024512 5155.28 0.795697 
27 2.20072 2.14736 -0.481688 0 0.0811266 0.361661 -0.000285537 5014.75 0.909379 
31 2.16634 2.09343 -0.557275 0 0.108495 0.407566 -0.00160078 4983.24 1.03118 
35 2.09359 2.00028 -0.618046 0 0.136475 0.441696 -0.00520513 4880.76 1.12802 
39 2.03197 1.9162 -0.676097 0 0.177537 0.503177 -0.00640066 4853.48 1.22857 
43 1.9692 1.82968 -0.728039 0 0.223435 0.561526 -0.00394792 4847.12 1.32396 
47 1.94904 1.78107 -0.791564 0 0.285339 0.642029 0.00188138 5067.43 1.45063 
51 1.28531 0.990099 -0.819594 0 0.524493 0.633606 0.00544758 4027.48 1.11855 
55 0.129428 0.0135846 -0.128714 0 0.210578 0.0222247 -0.00159837 711.039 0.171643 
59 0.00513529 -0.00275872 -0.00433136 0 0.00701948 -0.00447084 0.000951262 22.7122 0.00330564 
63 0.00476524 -0.00255989 -0.00401927 0 0.00734358 -0.00467716 -1.3744e-05 24.2087 0.00354887 
67 0.00315544 -0.00169513 -0.00266146 0 0.00494094 -0.00314697 0.00110542 13.4787 0.00229765 
71 0.00302672 -0.00162601 -0.00255287 0 0.00520061 -0.00331244 0.000451547 17.423 0.00240902 
75 0.00105978 -0.000569326 -0.000893867 0 0.00171293 -0.00109101 0.00011663 4.19593 0.000731851 
79 0.00174207 -0.000935856 -0.00146935 0 0.0027747 -0.00176726 -0.000590244 7.98223 0.00111427 
83 0.00185445 -0.000996209 -0.00156415 0 0.00313145 -0.00199443 0.000331535 10.3427 0.00122135 
87 0.00367013 -0.00197163 -0.00309557 0 0.0058556 -0.00372954 -0.000735051 16.9165 0.00208962 
91 0.000908451 -0.000488029 -0.000766232 0 0.0039189 -0.00249603 7.81058e-05 18.9417 0.00172929 
95 0.001894 -0.00101747 -0.0015975 0 0.00450944 -0.00287213 -0.0013493 14.0337 0.00164145 
99 0.00167336 -0.000898939 -0.0014114 0 0.00393807 -0.00250821 0.000283082 12.5385 0.00132533 
103 0.00110775 -0.00059509 -0.000934334 0 0.00266752 -0.00169898 8.30684e-05 8.35185 0.000833352 
107 0 0 0 0 0 0 0 0 0 
111 0.000553322 -0.000297255 -0.000466695 0 0.00170311 -0.00108477 0.000155182 9.59669 0.000469792 
115 0.00218594 -0.00117431 -0.00184373 0 0.00559897 -0.00356608 0.00298577 12.0589 0.00132824 
119 0 0 0 0 0 0 0 0 0 
123 0 0 0 0 0 0 0 0 0 
127 0 0 0 0 0 0 0 0 0 
131 0 0 0 0 0 0 0 0 0 
4 3.0942 3.09413 0.0202431 0 -0.000593421 0.0907034 0.00544966 6848.77 0.167829 
8 2.639 2.63757 -0.0869631 0 0.00499371 0.151458 0.000529528 5822.86 0.307234 
12 2.41715 2.41081 -0.175022 0 0.0120144 0.165491 -0.00129352 5317.85 0.431734 
16 2.38435 2.36942 -0.266482 0 0.0245484 0.218271 0.00285175 5304.57 0.574429 
20 2.32377 2.29715 -0.350685 0 0.0403486 0.264303 -0.00369965 5261.29 0.704589 
24 2.27143 2.23012 -0.431232 0 0.0581321 0.30063 0.00602529 5125.74 0.829576 
28 2.20896 2.15053 -0.504691 0 0.0871851 0.371503 -0.00430134 5059.35 0.946968 
32 2.17126 2.09258 -0.579222 0 0.115378 0.41683 0.00259745 5038.96 1.06703 
36 2.09788 1.99817 -0.63908 0 0.148116 0.463103 -0.0112945 4901.07 1.16477 
40 2.03681 1.91398 -0.69662 0 0.191407 0.525895 -0.0023298 4959.6 1.26615 
44 1.96575 1.81919 -0.744798 0 0.232332 0.567479 -0.00165678 4866.89 1.35244 
48 1.89059 1.72 -0.78483 0 0.292843 0.641781 -0.00786568 4948.5 1.4415 
52 0.907085 0.574439 -0.702014 0 0.611956 0.500746 -0.0044187 3295.85 0.888502 
56 0.056284 -0.00497007 -0.0560642 0 0.0824556 -0.00730966 0.00387873 255.94 0.0593385 
60 0.00414576 -0.00222715 -0.00349673 0 0.00528054 -0.0033633 0.000588542 17.5414 0.00234304 
64 0.00386548 -0.00207664 -0.0032603 0 0.00562696 -0.00358407 0.000411862 15.8079 0.00260371 
68 0.00261945 -0.00140722 -0.00220935 0 0.00430511 -0.00274209 0.000544205 13.2789 0.00202677 
72 0.00136749 -0.000734627 -0.00115341 0 0.00176308 -0.00112293 0.000405275 6.69122 0.000684345 
76 0.00114458 -0.000614878 -0.000965393 0 0.00157186 -0.00100115 0.000817112 5.71459 0.000604277 
80 0.00150191 -0.000806828 -0.0012668 0 0.00404619 -0.00257703 0.00137982 12.3374 0.00193544 
84 0.00200402 -0.00107658 -0.00169029 0 0.0045023 -0.0028676 0.00127587 12.5594 0.00193036 
88 0.000962009 -0.000516801 -0.000811405 0 0.00226524 -0.00144278 -0.000123616 5.31374 0.00092583 
92 0.00125682 -0.000675159 -0.00106007 0 0.00442516 -0.00281839 -0.000645181 13.9681 0.00185831 
96 0.000170093 -9.13748e-05 -0.000143465 0 0.000127673 -8.13165e-05 9.94209e-05 0.0736458 1.67543e-05 
100 0.00219567 -0.00117956 -0.00185192 0 0.00393289 -0.002505 0.000277284 14.6822 0.00117733 
104 0.00123662 -0.000664338 -0.00104302 0 0.000730155 -0.000465063 0.000297529 2.6839 2.59069e-05 
108 0 0 0 0 0 0 0 0 0 
112 0.00143015 -0.000768287 -0.00120627 0 0.00228816 -0.00145736 0.00153055 6.50215 0.000494979 
116 0 0 0 0 0 0 0 0 0 
120 0 0 0 0 0 0 0 0 0 
124 0 0 0 0 0 0 0 0 0 
128 0 0 0 0 0 0 0 0 0 
132 0 0 0 0 0 0 0 0 0 
