ITEM: TIMESTEP
23000
ITEM: NUMBER OF SURFS
134
ITEM: BOX BOUNDS oo ao pp
-10 10
0 10
-0.5 0.5
ITEM: SURFS id f_avg_pressure[1] f_avg_pressure[2] f_avg_pressure[3] f_avg_pressure[4] f_avg_shear[1] f_avg_shear[2] f_avg_shear[3] f_avg_heat_flux[*] f_avg_fdrag[*] 
1 3.37925 3.37704 0.12224 0 0.00052682 -0.014554 -0.00553526 7508.54 0.0261683 
5 2.97834 2.97833 -0.00989249 0 0.000391947 0.118003 0.00644129 6578.54 0.207786 
9 2.53871 2.53638 -0.108756 0 0.00600207 0.139979 0.0012354 5585.4 0.334979 
13 2.43602 2.42776 -0.200416 0 0.0142759 0.172933 -0.00431791 5394.18 0.472911 
17 2.33975 2.3224 -0.284434 0 0.0281157 0.229564 -0.000505905 5206.51 0.600199 
21 2.286 2.2563 -0.36731 0 0.0451248 0.277192 0.00106243 5158.39 0.72897 
25 2.29701 2.25081 -0.458364 0 0.0676756 0.332323 0.0032256 5225.06 0.875812 
29 2.20764 2.14415 -0.525646 0 0.0939355 0.383169 -0.00921615 5120.81 0.980864 
33 2.14317 2.05975 -0.592122 0 0.123513 0.429651 -0.00825818 4991.32 1.08771 
37 2.09965 1.99344 -0.659351 0 0.160018 0.483787 0.00468331 4970.14 1.20044 
41 2.07094 1.93895 -0.727489 0 0.206138 0.549413 -0.00215284 5047.18 1.32124 
45 1.91305 1.76319 -0.742246 0 0.24098 0.572441 -0.00109084 4787.34 1.3499 
49 1.8138 1.6426 -0.769232 0 0.313902 0.670299 -0.00769862 4885.01 1.42869 
53 0.5388 0.254634 -0.474834 0 0.527585 0.282923 0.00149407 2259.21 0.592202 
57 0.0201657 -0.00561043 -0.0193696 0 0.0308416 -0.00893332 6.0776e-05 93.7572 0.0192544 
61 0.00446264 -0.00239737 -0.00376401 0 0.00686633 -0.00437329 5.21943e-05 23.4792 0.00339125 
65 0.00236735 -0.00127176 -0.00199674 0 0.00372947 -0.00237536 -0.000563592 10.9432 0.00178152 
69 0.00287114 -0.00154237 -0.00242167 0 0.00441282 -0.00281054 -0.000480508 16.2338 0.00198322 
73 0.00184656 -0.00099199 -0.00155748 0 0.00406959 -0.00259199 0.00013948 13.7897 0.00202174 
77 0.000850783 -0.00045704 -0.000717597 0 0.00208429 -0.00132749 -0.000553115 7.22539 0.00101371 
81 0.00113896 -0.000611856 -0.000960652 0 0.00162806 -0.00103694 5.30523e-05 4.36385 0.000598518 
85 0.00202576 -0.00108826 -0.00170862 0 0.003818 -0.00243176 3.61346e-05 12.7516 0.001515 
89 0.00224068 -0.00120372 -0.00188989 0 0.00262731 -0.0016734 0.000308062 9.70391 0.000741743 
93 0.000482773 -0.000259356 -0.00040719 0 0.000914597 -0.000582544 -0.000154468 1.63261 0.000319138 
97 0.000444386 -0.000238733 -0.000374814 0 0.000437078 -0.00027839 1.44305e-06 0.898102 8.98666e-05 
101 0.000706438 -0.000379502 -0.000595846 0 0.00100738 -0.000641616 -0.000356835 3.33421 0.000263146 
105 0.00101355 -0.000544484 -0.000854882 0 0.00246785 -0.0015718 -9.4406e-05 7.69473 0.00074074 
109 0.000568863 -0.000305596 -0.000479809 0 0.00152586 -0.000971841 0.000167677 4.1947 0.0004285 
113 0.000340611 -0.000182979 -0.000287289 0 0.000574418 -0.000365856 0.000423056 1.24635 0.000124156 
117 0 0 0 0 0 0 0 0 0 
121 0 0 0 0 0 0 0 0 0 
125 9.82058e-05 -9.82058e-05 0 0 0 3.92222e-05 0.000142516 0.0212213 -1.50482e-05 
129 0 0 0 0 0 0 0 0 0 
133 0 0 0 0 0 0 0 0 0 
2 3.2697 3.26857 0.0859669 0 -0.000629073 0.0239181 0.00706535 7218.63 0.0759647 
6 2.81365 2.8134 -0.0371496 0 0.0017106 0.129546 0.000675532 6174.04 0.240021 
10 2.48645 2.483 -0.131033 0 0.00841477 0.159455 -0.000250219 5462.38 0.366849 
14 2.42471 2.41441 -0.223305 0 0.0177333 0.191735 -0.0047418 5388.99 0.50856 
18 2.30322 2.28326 -0.302569 0 0.0307908 0.232355 -0.00161065 5123.98 0.626481 
22 2.31829 2.28437 -0.395132 0 0.0505377 0.292172 6.02876e-05 5286.89 0.775275 
26 2.24186 2.19225 -0.469026 0 0.071893 0.336031 -0.00223262 5074.42 0.889631 
30 2.18487 2.1168 -0.541142 0 0.100914 0.394748 0.00915561 5012.76 1.0053 
34 2.1478 2.05825 -0.613736 0 0.133295 0.447022 -0.00913045 5054.56 1.12441 
38 2.11645 2.00273 -0.684436 0 0.172153 0.503736 0.006923 5071.77 1.24436 
42 2.01597 1.8804 -0.726786 0 0.214845 0.555866 0.00215712 4970.18 1.32088 
46 1.86561 1.71223 -0.740803 0 0.250365 0.578673 -0.00244169 4706.6 1.34992 
50 1.75424 1.54123 -0.837838 0 0.395394 0.72734 0.000543473 4986.14 1.40666 
54 0.297709 0.0876053 -0.284527 0 0.416493 0.128237 0.000134298 1525.9 0.384491 
58 0.00665102 -0.00304472 -0.00591319 0 0.00921036 -0.00474245 -0.000448787 29.165 0.00467146 
62 0.00316218 -0.00169874 -0.00266714 0 0.00464732 -0.00295995 -0.00111273 14.7756 0.00221246 
66 0.00215281 -0.00115648 -0.00181581 0 0.00254838 -0.00162306 -0.000953425 9.16881 0.000997145 
70 0.00188838 -0.00101446 -0.00159276 0 0.00348123 -0.00221726 -0.000328607 13.0868 0.00168333 
74 0.00277524 -0.00149088 -0.00234078 0 0.00419379 -0.0026711 0.000496866 12.4482 0.00175264 
78 0.00113029 -0.000607219 -0.000953335 0 0.00227099 -0.00144648 -8.35146e-05 10.346 0.00102232 
82 0.00185942 -0.000998923 -0.00156831 0 0.00336666 -0.00214437 -0.000820013 11.8182 0.00137444 
86 0.00128383 -0.000689687 -0.00108284 0 0.00406724 -0.00259053 0.000255379 12.0207 0.0018459 
90 0.0013964 -0.000750159 -0.0011778 0 0.00245174 -0.00156156 0.00033922 6.16437 0.000872112 
94 0.00161044 -0.000865137 -0.00135833 0 0.0027369 -0.00174317 -0.000225146 8.32371 0.000895746 
98 0.00123767 -0.000664886 -0.00104392 0 0.00236426 -0.00150583 0.000577137 8.57938 0.000755512 
102 0.0010724 -0.000576096 -0.000904514 0 0.00133484 -0.000850177 0.000188989 4.8831 0.000311546 
106 0.000237535 -0.000127605 -0.000200349 0 0.000242747 -0.000154609 -0.000150867 0.640455 4.33663e-05 
110 0.0012747 -0.000684774 -0.00107515 0 0.00185979 -0.00118452 -0.000365132 4.29524 0.000402627 
114 0.000458815 -0.00024648 -0.000386987 0 0.00105096 -0.000669378 -0.000341289 1.53859 0.00024833 
118 0 0 0 0 0 0 0 0 0 
122 0 0 0 0 0 0 0 0 0 
126 0 0 0 0 0 0 0 0 0 
130 0 0 0 0 0 0 0 0 0 
134 0 0 0 0 0 0 0 0 0 
3 3.20684 3.20641 0.0526633 0 -0.000928878 0.0565548 -0.00259079 7120.36 0.124203 
7 2.71984 2.71911 -0.062799 0 0.00332664 0.144039 0.00946167 5982.46 0.274325 
11 2.40974 2.40502 -0.150764 0 0.00967567 0.154348 -0.000349728 5241.4 0.392932 
15 2.39755 2.38506 -0.244404 0 0.0210353 0.205277 -0.000450846 5344.56 0.540248 
19 2.30577 2.28268 -0.325474 0 0.0351336 0.246406 0.00189623 5154.23 0.663104 
23 2.29531 2.25775 -0.413487 0 0.0553175 0.302049 0.000153073 5217.95 0.803333 
27 2.2016 2.14822 -0.481882 0 0.0808242 0.360313 0.000554442 5009.44 0.909608 
31 2.17741 2.10413 -0.560123 0 0.107916 0.405391 -0.00549794 5009.07 1.03592 
35 2.12116 2.02663 -0.626187 0 0.13813 0.447051 -0.00377119 4955.81 1.1428 
39 2.04745 1.93079 -0.681247 0 0.17795 0.504346 -0.00803797 4904.92 1.23738 
43 1.95805 1.81932 -0.723916 0 0.222114 0.558208 -0.000950528 4816.04 1.31642 
47 1.94657 1.77881 -0.790561 0 0.284831 0.640887 -0.000459917 5040.69 1.44869 
51 1.29406 0.996836 -0.825171 0 0.529622 0.639802 0.00609372 4067.16 1.12731 
55 0.130288 0.0136748 -0.129569 0 0.217382 0.0229427 -0.00244231 728.191 0.176921 
59 0.00501308 -0.00269307 -0.00422828 0 0.00698781 -0.00445066 0.000567619 22.1207 0.003332 
63 0.00438794 -0.0023572 -0.00370103 0 0.00724992 -0.00461751 -0.000245559 26.0643 0.00362976 
67 0.00292125 -0.00156932 -0.00246393 0 0.00438872 -0.00279526 0.000956493 11.2909 0.00199581 
71 0.00270693 -0.00145421 -0.00228314 0 0.00450251 -0.0028678 0.000380048 16.2315 0.00205434 
75 0.000838869 -0.000450651 -0.000707542 0 0.001268 -0.000807622 6.51405e-05 3.04043 0.000523066 
79 0.00193282 -0.00103833 -0.00163024 0 0.00256256 -0.00163214 -0.000633362 7.82261 0.000923626 
83 0.00254605 -0.00136773 -0.00214748 0 0.00373017 -0.00237575 0.000332506 12.518 0.0013513 
87 0.00357806 -0.00192216 -0.00301791 0 0.00541371 -0.00344809 -0.00100335 17.2791 0.00187849 
91 0.00107498 -0.000577489 -0.000906689 0 0.0036365 -0.00231616 -4.20757e-05 14.286 0.00154185 
95 0.00210048 -0.00112839 -0.00177165 0 0.00381987 -0.00243293 -0.000949807 12.3185 0.00126517 
99 0.00117135 -0.000629257 -0.000987979 0 0.00275665 -0.00175575 0.000198158 8.77693 0.000927731 
103 0.00151718 -0.000815035 -0.00127966 0 0.00304233 -0.0019377 0.000476596 11.7099 0.000895626 
107 0.000311949 -0.000167585 -0.000263111 0 0.00190043 -0.00121045 0.000464256 12.7062 0.000637937 
111 0.00146677 -0.000787979 -0.00123714 0 0.00375823 -0.00239376 0.000858962 11.9919 0.000992565 
115 0.00189984 -0.00102061 -0.00160242 0 0.00558167 -0.00355507 0.00202876 13.8405 0.00136919 
119 0 0 0 0 0 0 0 0 0 
123 0 0 0 0 0 0 0 0 0 
127 0 0 0 0 0 0 0 0 0 
131 0 0 0 0 0 0 0 0 0 
4 3.09509 3.09503 0.020249 0 -0.00058725 0.0897602 0.00425709 6864.54 0.167878 
8 2.61374 2.61232 -0.0861307 0 0.00491983 0.149217 0.00074579 5736.3 0.30429 
12 2.41545 2.40911 -0.174899 0 0.0119497 0.164599 -0.00351479 5302.01 0.431421 
16 2.3779 2.363 -0.265761 0 0.0249596 0.221928 0.00304895 5279.61 0.572988 
20 2.31326 2.28677 -0.349099 0 0.0405209 0.265432 -0.00523667 5222.03 0.70151 
24 2.26724 2.22601 -0.430437 0 0.0586885 0.303508 0.00601357 5118.23 0.828288 
28 2.20972 2.15127 -0.504864 0 0.0873914 0.372382 -0.00399883 5071.54 0.947368 
32 2.16861 2.09002 -0.578516 0 0.115499 0.417268 0.003321 5014.7 1.06585 
36 2.11087 2.01054 -0.643037 0 0.149312 0.466844 -0.00958464 4932.5 1.17214 
40 2.03418 1.91151 -0.695721 0 0.189847 0.521609 -0.00095529 4911.19 1.26373 
44 1.96687 1.82023 -0.745223 0 0.231827 0.566245 -0.000655354 4854.76 1.35279 
48 1.87325 1.70422 -0.777632 0 0.289592 0.634656 -0.00501055 4875.73 1.42787 
52 0.895304 0.566978 -0.692897 0 0.601061 0.491831 0.000822024 3236.71 0.874756 
56 0.0553397 -0.00488668 -0.0551235 0 0.0816807 -0.00724096 0.00168432 246.601 0.0588089 
60 0.00383957 -0.00206266 -0.00323848 0 0.00538642 -0.00343074 0.000887482 18.7353 0.00255052 
64 0.00382915 -0.00205712 -0.00322965 0 0.00519076 -0.00330624 0.000244132 14.5375 0.00229813 
68 0.00228284 -0.00122639 -0.00192544 0 0.00353467 -0.00225137 0.000305538 10.418 0.0016144 
72 0.00172782 -0.000928196 -0.00145733 0 0.00373832 -0.002381 -4.593e-05 13.5975 0.0018699 
76 0.00120927 -0.00064963 -0.00101995 0 0.00150159 -0.000956395 0.000558498 5.06637 0.000537964 
80 0.00139709 -0.000750517 -0.00117839 0 0.00349977 -0.00222901 0.00117181 12.6842 0.00164261 
84 0.00155329 -0.000834439 -0.00131012 0 0.00368648 -0.00234799 0.00112318 9.81194 0.0016071 
88 0.00108635 -0.000583596 -0.000916278 0 0.00212526 -0.00135362 -0.000256032 6.37812 0.00081634 
92 0.000879771 -0.000472611 -0.000742049 0 0.00309761 -0.00197287 -0.000451627 9.77768 0.00130082 
96 0.000119065 -6.39624e-05 -0.000100426 0 8.93712e-05 -5.69216e-05 6.95946e-05 0.0515521 1.1728e-05 
100 0.00223637 -0.00120142 -0.00188625 0 0.00357108 -0.00227455 0.000145869 12.5435 0.00101327 
104 0.00222306 -0.00119427 -0.00187502 0 0.00312984 -0.00199351 0.000106483 9.14501 0.000761886 
108 0.000119792 -6.43527e-05 -0.000101038 0 0.000226985 -0.00014457 -9.82167e-05 0.621604 5.84899e-05 
112 0.00100111 -0.000537801 -0.000844386 0 0.00160171 -0.00102015 0.00107138 4.55151 0.000346485 
116 0.000141924 -7.62428e-05 -0.000119706 0 0.000589928 -0.000375736 -0.00041294 1.2244 0.00014984 
120 0 0 0 0 0 0 0 0 0 
124 0 0 0 0 0 0 0 0 0 
128 0 0 0 0 0 0 0 0 0 
132 0 0 0 0 0 0 0 0 0 
