ITEM: TIMESTEP
21000
ITEM: NUMBER OF SURFS
134
ITEM: BOX BOUNDS oo ao pp
-10 10
0 10
-0.5 0.5
ITEM: SURFS id f_avg_pressure[1] f_avg_pressure[2] f_avg_pressure[3] f_avg_pressure[4] f_avg_shear[1] f_avg_shear[2] f_avg_shear[3] f_avg_heat_flux[*] f_avg_fdrag[*] 
1 3.39295 3.39072 0.122736 0 0.000455021 -0.0125705 -0.00209165 7538.47 0.0262738 
5 2.99188 2.99186 -0.00993744 0 0.000384604 0.115793 0.00325573 6636.36 0.20873 
9 2.54285 2.54052 -0.108933 0 0.00614752 0.143371 -0.000352528 5597.48 0.335543 
13 2.4163 2.4081 -0.198793 0 0.0142981 0.173202 -0.00425235 5338.14 0.469108 
17 2.33663 2.3193 -0.284055 0 0.0280249 0.228823 0.00170309 5197.66 0.599387 
21 2.28772 2.25799 -0.367585 0 0.0453248 0.27842 0.00247825 5180.97 0.729569 
25 2.29481 2.24866 -0.457926 0 0.0676681 0.332286 0.00239997 5218.71 0.874996 
29 2.20207 2.13873 -0.52432 0 0.0940452 0.383616 -0.0105537 5111.97 0.978541 
33 2.14084 2.05752 -0.591478 0 0.123321 0.428984 -0.00593274 4995.78 1.0865 
37 2.08826 1.98262 -0.655773 0 0.158351 0.478749 0.0019883 4942.65 1.19348 
41 2.05506 1.92409 -0.721913 0 0.20351 0.542409 -0.0038621 4999.99 1.31046 
45 1.91647 1.76634 -0.743573 0 0.241433 0.573519 -0.000162036 4800.3 1.35233 
49 1.81608 1.64467 -0.770203 0 0.315552 0.673823 -0.00969084 4892.37 1.4314 
53 0.540735 0.255549 -0.476539 0 0.533093 0.285876 0.00368931 2278.45 0.597065 
57 0.0199508 -0.00555064 -0.0191631 0 0.030867 -0.00894069 2.08143e-05 90.8287 0.0193195 
61 0.00426766 -0.00229262 -0.00359956 0 0.00708196 -0.00451063 0.0004392 23.7273 0.00363437 
65 0.00225202 -0.00120981 -0.00189947 0 0.00341083 -0.00217242 -0.000876181 9.97845 0.00159546 
69 0.00311538 -0.00167358 -0.00262769 0 0.00463839 -0.00295421 -0.000278372 17.5817 0.00204841 
73 0.00207472 -0.00111455 -0.00174992 0 0.00480313 -0.0030592 0.000255821 16.2979 0.00242311 
77 0.000664316 -0.00035687 -0.000560321 0 0.00193032 -0.00122942 -0.000970323 7.57802 0.000980191 
81 0.0011165 -0.000599794 -0.000941713 0 0.00167347 -0.00106586 0.00035591 4.09271 0.000632364 
85 0.00111444 -0.00059869 -0.000939977 0 0.00195434 -0.00124476 0.000846099 4.95281 0.000752383 
89 0.00230207 -0.0012367 -0.00194168 0 0.00283479 -0.00180554 0.000559372 10.9174 0.000832661 
93 0.000345207 -0.000185453 -0.000291162 0 0.000768832 -0.0004897 -0.000216234 1.33945 0.000284137 
97 0.000275386 -0.000147943 -0.000232273 0 0.000243736 -0.000155244 5.48416e-05 0.42215 4.34023e-05 
101 0.000883048 -0.000474378 -0.000744808 0 0.00125923 -0.00080202 -0.000446044 4.16777 0.000328932 
105 0.00126694 -0.000680606 -0.0010686 0 0.00308481 -0.00196475 -0.000118008 9.61841 0.000925925 
109 0.000711079 -0.000381995 -0.000599761 0 0.00190733 -0.0012148 0.000209596 5.24337 0.000535625 
113 0.000425764 -0.000228724 -0.000359111 0 0.000718022 -0.00045732 0.00052882 1.55794 0.000155195 
117 0 0 0 0 0 0 0 0 0 
121 0 0 0 0 0 0 0 0 0 
125 0.000122757 -0.000122757 0 0 0 4.90277e-05 0.000178144 0.0265266 -1.88103e-05 
129 0 0 0 0 0 0 0 0 0 
133 0 0 0 0 0 0 0 0 0 
2 3.28727 3.28614 0.086429 0 -0.000583025 0.0221674 0.00960902 7278.38 0.0763741 
6 2.82689 2.82665 -0.0373245 0 0.00168481 0.127594 -0.00153536 6206.26 0.241148 
10 2.49453 2.49107 -0.131459 0 0.00840493 0.159269 -0.00242235 5494.41 0.368036 
14 2.41158 2.40133 -0.222096 0 0.0172389 0.186389 -0.00194171 5359.24 0.505723 
18 2.31977 2.29967 -0.304743 0 0.0313863 0.236849 -0.00154984 5168.56 0.631084 
22 2.34467 2.31036 -0.399629 0 0.0516782 0.298765 0.00198448 5357.29 0.784285 
26 2.24653 2.19681 -0.470002 0 0.072263 0.337761 -0.00326656 5091.6 0.891569 
30 2.18038 2.11244 -0.540029 0 0.101344 0.396429 0.0108921 5000.92 1.00352 
34 2.1413 2.05201 -0.611877 0 0.133619 0.448111 -0.00487843 5018.46 1.12138 
38 2.11865 2.00481 -0.685148 0 0.172124 0.503652 0.00669513 5077.45 1.24553 
42 2.01117 1.87592 -0.725054 0 0.214625 0.555297 0.00208491 4949.03 1.31792 
46 1.87348 1.71945 -0.743928 0 0.252274 0.583084 -0.00670062 4747.78 1.3562 
50 1.75917 1.54556 -0.840191 0 0.39968 0.735223 0.00246951 5014.7 1.41291 
54 0.295961 0.087091 -0.282857 0 0.416665 0.12829 0.00194649 1528.6 0.38423 
58 0.00622039 -0.00284758 -0.00553032 0 0.00925499 -0.00476543 0.00021304 27.3755 0.00485464 
62 0.00331246 -0.00177947 -0.00279389 0 0.00480976 -0.00306341 -0.00116757 15.0488 0.00227378 
66 0.00205343 -0.0011031 -0.00173198 0 0.00260108 -0.00165662 -0.00106216 10.2514 0.00107314 
70 0.00163595 -0.000878848 -0.00137985 0 0.00322332 -0.00205299 -0.000708867 12.4402 0.00159988 
74 0.00298585 -0.00160402 -0.00251841 0 0.00455434 -0.00290074 0.00051468 12.8513 0.00191307 
78 0.000982444 -0.000527791 -0.000828633 0 0.00249739 -0.00159069 0.000146482 12.1163 0.00121024 
82 0.00165289 -0.000887972 -0.00139412 0 0.0036135 -0.00230159 -0.00143833 12.5587 0.00158213 
86 0.0010897 -0.0005854 -0.000919104 0 0.00360604 -0.00229678 0.000254482 12.8428 0.00165084 
90 0.0017455 -0.000937699 -0.00147224 0 0.00306468 -0.00195195 0.000424025 7.70546 0.00109014 
94 0.00136155 -0.000731431 -0.0011484 0 0.00249936 -0.00159187 -4.18631e-05 7.73912 0.000846053 
98 0.00135797 -0.000729511 -0.00114538 0 0.00252916 -0.00161086 0.000660854 9.38636 0.000800094 
102 0 0 0 0 0 0 0 0 0 
106 0.000296919 -0.000159506 -0.000250436 0 0.000303434 -0.000193261 -0.000188584 0.800569 5.42079e-05 
110 0.00126822 -0.000681291 -0.00106968 0 0.00182887 -0.00116483 -0.00059985 4.68268 0.000393226 
114 0.000295076 -0.000158518 -0.000248881 0 0.00108794 -0.000692933 -0.000114943 1.69667 0.000286899 
118 0 0 0 0 0 0 0 0 0 
122 0 0 0 0 0 0 0 0 0 
126 0 0 0 0 0 0 0 0 0 
130 0 0 0 0 0 0 0 0 0 
134 0 0 0 0 0 0 0 0 0 
3 3.21629 3.21585 0.0528185 0 -0.000961711 0.0585538 -0.00122626 7154.17 0.124568 
7 2.72905 2.72832 -0.0630118 0 0.00341972 0.148069 0.0068448 5994.14 0.275263 
11 2.41179 2.40707 -0.150892 0 0.00976871 0.155833 0.0042306 5256.12 0.39328 
15 2.39336 2.38089 -0.243977 0 0.0206904 0.201911 -0.00146022 5339.88 0.539234 
19 2.30447 2.28139 -0.32529 0 0.0350636 0.245915 0.000703569 5134.45 0.662716 
23 2.27918 2.2419 -0.410583 0 0.0551525 0.301148 0.000455232 5175.28 0.797768 
27 2.20883 2.15527 -0.483463 0 0.0808858 0.360588 -0.00197376 5040.08 0.912509 
31 2.16425 2.09141 -0.556737 0 0.107936 0.405469 -0.00399176 4980.68 1.02997 
35 2.09769 2.0042 -0.619256 0 0.136993 0.443372 -0.00302688 4898.98 1.13036 
39 2.04185 1.92551 -0.679382 0 0.178766 0.50666 -0.0071973 4886.08 1.23476 
43 1.97559 1.83562 -0.730402 0 0.224279 0.56365 -0.00355781 4869.37 1.32833 
47 1.94233 1.77493 -0.788837 0 0.284304 0.639701 0.0026705 5035.59 1.44559 
51 1.28514 0.989962 -0.81948 0 0.525405 0.634708 0.00784832 4031.23 1.11912 
55 0.129008 0.0135404 -0.128295 0 0.212933 0.0224732 -0.00145647 714.636 0.173412 
59 0.00509809 -0.00273874 -0.00429998 0 0.00675946 -0.00430522 0.000819428 21.4993 0.00311941 
63 0.00471367 -0.00253218 -0.00397577 0 0.0073982 -0.00471195 -0.00042908 25.781 0.00360995 
67 0.00330061 -0.00177312 -0.0027839 0 0.00494056 -0.00314673 0.000859229 12.8484 0.00224218 
71 0.00269471 -0.00144765 -0.00227284 0 0.0048396 -0.0030825 0.000275091 16.8978 0.00228593 
75 0.000927306 -0.00049816 -0.000782134 0 0.00149881 -0.000954631 0.000102051 3.67144 0.00064037 
79 0.00174838 -0.000939243 -0.00147467 0 0.00259556 -0.00165316 -0.000275458 7.41146 0.00100366 
83 0.00277106 -0.00148861 -0.00233727 0 0.00396339 -0.00252429 0.000648971 13.7934 0.00141557 
87 0.00383221 -0.0020587 -0.00323228 0 0.00613429 -0.00390704 -0.000544147 18.318 0.00219271 
91 0.000957992 -0.000514643 -0.000808017 0 0.00351421 -0.00223827 -2.86375e-05 16.6063 0.00151189 
95 0.00165725 -0.000890283 -0.00139781 0 0.00394576 -0.00251311 -0.00118064 12.2795 0.00143627 
99 0.00146419 -0.000786572 -0.00123497 0 0.00344581 -0.00219468 0.000247697 10.9712 0.00115966 
103 0.000969282 -0.000520703 -0.000817542 0 0.00233408 -0.00148661 7.26849e-05 7.30787 0.000729183 
107 0 0 0 0 0 0 0 0 0 
111 0.000980416 -0.000526699 -0.000826924 0 0.00235129 -0.00149763 0.000158315 9.61316 0.000609722 
115 0.0019127 -0.00102752 -0.00161326 0 0.0048991 -0.00312032 0.00261254 10.5516 0.00116221 
119 0 0 0 0 0 0 0 0 0 
123 0 0 0 0 0 0 0 0 0 
127 0 0 0 0 0 0 0 0 0 
131 0 0 0 0 0 0 0 0 0 
4 3.09776 3.09769 0.0202664 0 -0.000606608 0.0927191 0.00302247 6870 0.168022 
8 2.64322 2.64178 -0.087102 0 0.00498445 0.151177 0.000665704 5824.1 0.307723 
12 2.42229 2.41593 -0.175394 0 0.0118533 0.163272 -0.000807819 5331.9 0.432619 
16 2.38107 2.36615 -0.266115 0 0.0247472 0.220039 0.0040532 5288.88 0.573693 
20 2.32431 2.29769 -0.350767 0 0.0409446 0.268207 -0.00490431 5254.76 0.704931 
24 2.2657 2.22449 -0.430144 0 0.0585294 0.302685 0.00858834 5115.95 0.827681 
28 2.21812 2.15945 -0.506785 0 0.0881893 0.375782 -0.0045122 5092.68 0.951169 
32 2.17212 2.0934 -0.579451 0 0.115449 0.417089 0.00220835 5035.28 1.06746 
36 2.10703 2.00688 -0.641867 0 0.149216 0.466542 -0.0107899 4939.19 1.1701 
40 2.03873 1.91578 -0.697274 0 0.191272 0.525525 -0.00128802 4949.94 1.26715 
44 1.97202 1.82499 -0.747173 0 0.233113 0.569386 -0.00342396 4886.32 1.35678 
48 1.87934 1.70976 -0.780159 0 0.290369 0.63636 -0.00763857 4903.99 1.4324 
52 0.895855 0.567326 -0.693323 0 0.602592 0.493084 -0.000306244 3240.88 0.876163 
56 0.057052 -0.00503788 -0.0568291 0 0.0842626 -0.00746985 0.00333705 257.906 0.0606704 
60 0.00420801 -0.0022606 -0.00354924 0 0.00535654 -0.00341171 0.00099363 17.8072 0.00237571 
64 0.00413019 -0.00221884 -0.00348356 0 0.0059374 -0.00378181 0.000230909 16.5486 0.00272709 
68 0.00241236 -0.00129597 -0.00203469 0 0.00405015 -0.0025797 0.000444147 12.1896 0.00192626 
72 0.00137975 -0.000741214 -0.00116375 0 0.00198043 -0.00126136 0.000350663 7.50237 0.00082459 
76 0.00100151 -0.000538019 -0.000844719 0 0.00137538 -0.000876006 0.000714973 5.00027 0.000528743 
80 0.00159993 -0.00085948 -0.00134947 0 0.00394107 -0.00251008 0.00133812 13.4229 0.00184118 
84 0.00175352 -0.000942004 -0.001479 0 0.00393951 -0.00250915 0.00111638 10.9895 0.00168907 
88 0.000841758 -0.0004522 -0.00070998 0 0.00198209 -0.00126243 -0.000108164 4.64952 0.000810101 
92 0.00109971 -0.000590764 -0.000927561 0 0.00387202 -0.00246609 -0.000564534 12.2221 0.00162602 
96 0.000148832 -7.99529e-05 -0.000125532 0 0.000111714 -7.1152e-05 8.69933e-05 0.0644401 1.466e-05 
100 0.00192121 -0.00103211 -0.00162043 0 0.00344128 -0.00219187 0.000242623 12.847 0.00103016 
104 0.00133089 -0.00071498 -0.00112253 0 0.00107329 -0.000683619 0.000393622 4.79235 0.00014104 
108 0.00014974 -8.04409e-05 -0.000126298 0 0.000283731 -0.000180712 -0.000122771 0.777005 7.31124e-05 
112 0.00125139 -0.000672251 -0.00105548 0 0.00200214 -0.00127519 0.00133923 5.68938 0.000433107 
116 0 0 0 0 0 0 0 0 0 
120 0 0 0 0 0 0 0 0 0 
124 0 0 0 0 0 0 0 0 0 
128 0 0 0 0 0 0 0 0 0 
132 0 0 0 0 0 0 0 0 0 
