ITEM: TIMESTEP
15000
ITEM: NUMBER OF SURFS
134
ITEM: BOX BOUNDS oo ao pp
-10 10
0 10
-0.5 0.5
ITEM: SURFS id f_avg_pressure[1] f_avg_pressure[2] f_avg_pressure[3] f_avg_pressure[4] f_avg_shear[1] f_avg_shear[2] f_avg_shear[3] f_avg_heat_flux[*] f_avg_fdrag[*] 
1 3.32578 3.32361 0.120306 0 0.000766909 -0.0211868 0.00923288 7509.09 0.0257562 
5 3.0729 3.07289 -0.0102066 0 0.000346282 0.104255 0.00537721 6857.29 0.214379 
9 2.52146 2.51915 -0.108017 0 0.00544594 0.127009 0.00605064 5529.61 0.332635 
13 2.42285 2.41464 -0.199333 0 0.0144703 0.175288 -0.0105756 5376.3 0.470407 
17 2.36042 2.34292 -0.286947 0 0.0274652 0.224253 0.000511495 5312.16 0.605273 
21 2.33136 2.30107 -0.374597 0 0.0465351 0.285855 0.00405266 5289.33 0.743596 
25 2.29487 2.24871 -0.457937 0 0.0668465 0.328252 0.0128794 5277.72 0.874706 
29 2.17814 2.11549 -0.518622 0 0.0953666 0.389007 -0.00720003 4992.98 0.968934 
33 2.15878 2.07475 -0.596434 0 0.12332 0.428979 -0.00348931 5050.24 1.09508 
37 2.0788 1.97364 -0.652801 0 0.158417 0.478948 0.00411507 4952.59 1.18851 
41 2.03019 1.9008 -0.713173 0 0.198202 0.528262 -0.00604485 4920.33 1.29285 
45 1.9908 1.83484 -0.772411 0 0.253366 0.601864 0.00439979 5040.55 1.40651 
49 1.84872 1.67423 -0.784045 0 0.323959 0.691774 -0.00364339 5019.22 1.45913 
53 0.541152 0.255746 -0.476906 0 0.537826 0.288414 0.0165358 2328.29 0.600796 
57 0.0220006 -0.00612092 -0.021132 0 0.0312991 -0.00906583 0.00230044 99.4903 0.019214 
61 0.00399463 -0.00214595 -0.00336927 0 0.00455649 -0.00290211 0.000737658 18.0711 0.00182923 
65 0.00261477 -0.00140468 -0.00220543 0 0.00469249 -0.00298873 -0.00214589 16.117 0.00238324 
69 0.00533439 -0.00286563 -0.00449932 0 0.00798928 -0.0050884 0.000187313 34.3883 0.00353997 
73 0.0013087 -0.000703045 -0.00110382 0 0.00536872 -0.00341943 -0.000917861 21.8649 0.00306498 
77 0.00207343 -0.00111385 -0.00174885 0 0.00605493 -0.0038564 -0.00384062 27.8032 0.00307809 
81 0.00239244 -0.00128524 -0.0020179 0 0.00261339 -0.00166451 0.00205026 5.735 0.000782244 
85 0.00109214 -0.000586709 -0.000921165 0 0.0014687 -0.000935442 1.33826e-05 1.96988 0.000489501 
89 0 0 0 0 0 0 0 0 0 
93 0.00138083 -0.000741811 -0.00116465 0 0.00307533 -0.0019588 -0.000864938 5.35781 0.00113655 
97 0 0 0 0 0 0 0 0 0 
101 0.000743398 -0.000399357 -0.00062702 0 0.00167905 -0.00106941 -0.000281459 2.76206 0.000536322 
105 0.00162301 -0.000871889 -0.00136893 0 0.00603709 -0.00384509 0.00102431 23.989 0.00198926 
109 0 0 0 0 0 0 0 0 0 
113 0 0 0 0 0 0 0 0 0 
117 0 0 0 0 0 0 0 0 0 
121 0 0 0 0 0 0 0 0 0 
125 0.000491029 -0.000491029 0 0 0 0.000196111 0.000712578 0.106106 -7.52412e-05 
129 0 0 0 0 0 0 0 0 0 
133 0 0 0 0 0 0 0 0 0 
2 3.1562 3.15511 0.0829829 0 0.000107523 -0.00408815 -0.00765823 6926.74 0.0733445 
6 2.85661 2.85636 -0.0377168 0 0.00193253 0.146354 0.00212868 6326.23 0.243702 
10 2.5561 2.55254 -0.134703 0 0.00874669 0.165745 -0.0142445 5667.99 0.377138 
14 2.44929 2.43888 -0.225568 0 0.016943 0.18319 0.019075 5439.18 0.513512 
18 2.26318 2.24356 -0.297308 0 0.0300431 0.226713 -0.0107177 4965.9 0.615531 
22 2.38426 2.34938 -0.406377 0 0.0564068 0.326103 0.00683229 5462.48 0.79881 
26 2.254 2.20412 -0.471566 0 0.0717303 0.335271 -0.0102332 5154.42 0.894233 
30 2.1687 2.10113 -0.537137 0 0.0999295 0.390896 0.0205796 5010.9 0.997747 
34 2.17172 2.08117 -0.620571 0 0.131487 0.440959 -0.012693 5087.46 1.13524 
38 2.12287 2.0088 -0.686513 0 0.170797 0.499768 0.00947537 5128.12 1.24706 
42 2.022 1.88603 -0.72896 0 0.217681 0.563204 -0.0157305 5020.82 1.32622 
46 1.9487 1.78848 -0.773795 0 0.267937 0.619286 -0.0230905 4989.81 1.41445 
50 1.76085 1.54703 -0.840994 0 0.403451 0.742159 0.000489997 5064.18 1.41673 
54 0.28993 0.0853162 -0.277093 0 0.410613 0.126427 0.00426742 1506.9 0.378261 
58 0.00590234 -0.00270199 -0.00524756 0 0.0108354 -0.0055792 -0.000879133 33.5727 0.00616239 
62 0.00605197 -0.00325116 -0.00510454 0 0.00773973 -0.00492956 -0.00160871 22.1266 0.00336801 
66 0.00329272 -0.00176884 -0.00277727 0 0.00408466 -0.00260151 -0.0037674 15.392 0.00165904 
70 0.00255297 -0.00137147 -0.0021533 0 0.00693197 -0.0044151 -0.00223905 23.1652 0.0037945 
74 0.00652534 -0.00350547 -0.0055038 0 0.00521047 -0.00331864 0.00219664 11.2289 0.00110557 
78 0.00169218 -0.000909077 -0.00142725 0 0.00601303 -0.00382995 -0.000545324 33.1479 0.00313617 
82 0.00114596 -0.000615635 -0.000966548 0 0.00164454 -0.00104747 -0.000110907 3.80032 0.000597263 
86 0.0016049 -0.00086217 -0.00135365 0 0.00673103 -0.00428715 0.000814864 21.7788 0.00320744 
90 0.000369459 -0.000198477 -0.00031162 0 0.000868168 -0.000552952 0.000474352 1.87961 0.000343237 
94 0.000657949 -0.000353454 -0.000554948 0 0.00164192 -0.00104576 0.000753789 6.86566 0.000616607 
98 0.00289342 -0.00155436 -0.00244046 0 0.0057147 -0.00363977 0.00342406 18.9251 0.00184961 
102 0 0 0 0 0 0 0 0 0 
106 0 0 0 0 0 0 0 0 0 
110 0.00137535 -0.000738845 -0.00116004 0 0.00329133 -0.00209628 -0.00374925 13.9841 0.000874629 
114 0 0 0 0 0 0 0 0 0 
118 0 0 0 0 0 0 0 0 0 
122 0 0 0 0 0 0 0 0 0 
126 0 0 0 0 0 0 0 0 0 
130 0 0 0 0 0 0 0 0 0 
134 0 0 0 0 0 0 0 0 0 
3 3.20654 3.2061 0.0526583 0 -0.000779557 0.0474633 -0.0258464 7122.79 0.124197 
7 2.67921 2.67849 -0.0618609 0 0.00307704 0.133232 -0.00435755 5808.64 0.270207 
11 2.39507 2.39038 -0.149846 0 0.00900679 0.143678 0.000867439 5202.07 0.39044 
15 2.39732 2.38483 -0.24438 0 0.0204238 0.19931 -0.00367344 5321.26 0.540058 
19 2.25922 2.2366 -0.318904 0 0.0334681 0.234726 -0.00634635 5019.02 0.649446 
23 2.27487 2.23766 -0.409807 0 0.0578954 0.316125 0.000300673 5221.77 0.797249 
27 2.19677 2.1435 -0.480824 0 0.0837169 0.373209 -0.0155396 5105.38 0.908864 
31 2.10459 2.03376 -0.54139 0 0.10268 0.385721 0.000762363 4829.78 1.00051 
35 2.07892 1.98626 -0.613715 0 0.131143 0.424438 -0.00678949 4780.11 1.1178 
39 2.04111 1.92481 -0.679137 0 0.178836 0.506858 -0.0038572 4868.71 1.23439 
43 1.999 1.85737 -0.739057 0 0.222681 0.559633 0.0104336 4929.83 1.34133 
47 1.90913 1.74459 -0.775353 0 0.28449 0.640118 0.00401287 4962.74 1.42443 
51 1.22958 0.947167 -0.784055 0 0.50036 0.604453 0.0114141 3822.22 1.06902 
55 0.123312 0.0129426 -0.122631 0 0.197554 0.0208501 -0.00468061 652.67 0.161178 
59 0.00414855 -0.00222863 -0.00349909 0 0.00653284 -0.00416088 0.00194497 19.069 0.00333934 
63 0.00572246 -0.00307411 -0.00482664 0 0.00750191 -0.004778 0.001626 26.6356 0.00328485 
67 0.00232587 -0.00124948 -0.00196175 0 0.00556399 -0.00354381 0.000212546 17.6857 0.00305418 
71 0.000486236 -0.000261214 -0.000410113 0 0.000826569 -0.000526469 0.000124914 1.38973 0.000381008 
75 0 0 0 0 0 0 0 0 0 
79 0.00250254 -0.00134438 -0.00211076 0 0.00473722 -0.00301722 -0.000561442 15.0249 0.00205592 
83 0.00261628 -0.00140546 -0.00220672 0 0.0047552 -0.00302859 0.000823036 10.3874 0.00191603 
87 0.000235504 -0.000126515 -0.000198636 0 0.00157717 -0.00100453 -0.000223515 5.09757 0.00078047 
91 0.00041804 -0.000224575 -0.000352596 0 0.00198878 -0.0012667 0.00129462 5.05401 0.000889226 
95 0 0 0 0 0 0 0 0 0 
99 0.000137405 -7.38148e-05 -0.000115895 0 0.000679089 -0.000432521 0.000625991 1.194 0.000263953 
103 0 0 0 0 0 0 0 0 0 
107 0 0 0 0 0 0 0 0 0 
111 0.00193663 -0.00104039 -0.00163343 0 0.00596088 -0.00379671 0.000543136 33.5884 0.00164427 
115 0.00103646 -0.000556797 -0.000874206 0 0.00138276 -0.000880706 0.000160572 3.84612 0.000247947 
119 0 0 0 0 0 0 0 0 0 
123 0 0 0 0 0 0 0 0 0 
127 0 0 0 0 0 0 0 0 0 
131 0 0 0 0 0 0 0 0 0 
4 3.15882 3.15875 0.0206659 0 -0.0004043 0.0617966 0.0144865 7058.3 0.171345 
8 2.64905 2.64761 -0.0872942 0 0.00510568 0.154854 -0.0130494 5847.88 0.308415 
12 2.45305 2.44661 -0.177621 0 0.0128501 0.177002 -0.0145994 5426.56 0.438262 
16 2.3946 2.3796 -0.267627 0 0.025447 0.226262 0.00248009 5376.69 0.577088 
20 2.38159 2.35432 -0.359411 0 0.0405124 0.265376 0.00444111 5470.25 0.721869 
24 2.23167 2.19108 -0.423683 0 0.0594516 0.307454 0.00662855 4963.88 0.815901 
28 2.21281 2.15428 -0.505571 0 0.0870715 0.371019 -0.00851878 5108.63 0.948507 
32 2.08361 2.0081 -0.555839 0 0.10838 0.391548 0.00986433 4772.91 1.02282 
36 2.09321 1.99372 -0.637656 0 0.144769 0.45264 0.00888113 4880.89 1.16054 
40 2.03354 1.91091 -0.695501 0 0.190055 0.52218 -0.00121171 4910.87 1.26349 
44 1.99906 1.85001 -0.757417 0 0.240637 0.587763 -0.0122643 4982.88 1.37823 
48 1.90128 1.72971 -0.789265 0 0.296907 0.650688 -0.00693395 5000.93 1.45137 
52 0.88129 0.558103 -0.682051 0 0.596987 0.488498 -0.00230384 3234.01 0.865058 
56 0.0577202 -0.00509688 -0.0574947 0 0.0874915 -0.00775609 0.00696105 256.391 0.0630979 
60 0.00446471 -0.0023985 -0.00376575 0 0.00562616 -0.00358344 0.00159505 21.0513 0.00247677 
64 0.00608149 -0.00326713 -0.00512937 0 0.00642644 -0.0040933 0.00277355 16.7032 0.00231695 
68 0.00259131 -0.00139211 -0.00218562 0 0.00364068 -0.0023189 -0.00161491 5.58334 0.00157265 
72 0 0 0 0 0 0 0 0 0 
76 0.000581074 -0.000312159 -0.000490106 0 0.000477242 -0.000303965 -0.000748665 3.7326 0.00010424 
80 0.00256588 -0.00137839 -0.0021642 0 0.00565325 -0.00360057 0.00293922 16.0336 0.00255413 
84 0.00523949 -0.0028147 -0.00441924 0 0.0114798 -0.00731174 0.00351036 35.6839 0.00488273 
88 0 0 0 0 0 0 0 0 0 
92 0.000944906 -0.000507601 -0.000796987 0 0.00605118 -0.003854 -0.000574016 21.0719 0.00274712 
96 0 0 0 0 0 0 0 0 0 
100 0 0 0 0 0 0 0 0 0 
104 0.00269078 -0.00144554 -0.00226952 0 0.000454131 -0.000289253 0.00111137 2.12489 -0.000390243 
108 0 0 0 0 0 0 0 0 0 
112 0.00263807 -0.00141719 -0.00222509 0 0.00504192 -0.00321127 0.0028952 16.7803 0.00118047 
116 0 0 0 0 0 0 0 0 0 
120 0 0 0 0 0 0 0 0 0 
124 0 0 0 0 0 0 0 0 0 
128 0 0 0 0 0 0 0 0 0 
132 0 0 0 0 0 0 0 0 0 
