ITEM: TIMESTEP
19000
ITEM: NUMBER OF SURFS
134
ITEM: BOX BOUNDS oo ao pp
-10 10
0 10
-0.5 0.5
ITEM: SURFS id f_avg_pressure[1] f_avg_pressure[2] f_avg_pressure[3] f_avg_pressure[4] f_avg_shear[1] f_avg_shear[2] f_avg_shear[3] f_avg_heat_flux[*] f_avg_fdrag[*] 
1 3.36911 3.36691 0.121874 0 0.000166226 -0.0045922 -0.00334542 7483.23 0.026087 
5 3.01312 3.01311 -0.010008 0 0.000361105 0.108718 0.00720636 6686.17 0.21021 
9 2.54251 2.54018 -0.108919 0 0.00610932 0.14248 0.00601823 5605.3 0.335493 
13 2.38473 2.37665 -0.196196 0 0.0139454 0.168929 -0.00198795 5244.03 0.462948 
17 2.33409 2.31677 -0.283745 0 0.0279683 0.22836 0.00232247 5195.88 0.598726 
21 2.29284 2.26305 -0.368409 0 0.0452702 0.278084 -0.00104956 5183.94 0.731155 
25 2.30544 2.25907 -0.460046 0 0.0682606 0.335196 -0.00465974 5250.59 0.879153 
29 2.21129 2.14769 -0.526516 0 0.0956173 0.390029 -0.0135933 5127.1 0.983156 
33 2.12901 2.04615 -0.58821 0 0.121853 0.423878 -0.00745198 4962.07 1.0801 
37 2.06643 1.96189 -0.648917 0 0.15697 0.474573 0.00219561 4877.46 1.18116 
41 2.04308 1.91288 -0.717704 0 0.202019 0.538435 -0.0045965 4960.82 1.30264 
45 1.91248 1.76266 -0.742026 0 0.241282 0.573158 -0.00174956 4799.15 1.34975 
49 1.8258 1.65347 -0.774324 0 0.317158 0.677252 -0.00860454 4934.53 1.439 
53 0.538913 0.254688 -0.474933 0 0.530627 0.284554 0.00646573 2259.85 0.594545 
57 0.0204452 -0.00568818 -0.019638 0 0.0308251 -0.00892854 -0.00103271 91.8803 0.0191825 
61 0.00361864 -0.00194396 -0.00305214 0 0.00544169 -0.00346591 0.000468997 17.8829 0.00265423 
65 0.00222795 -0.00119687 -0.00187916 0 0.0034318 -0.00218578 -0.00099199 11.4419 0.00162004 
69 0.00335987 -0.00180492 -0.0028339 0 0.00441183 -0.00280991 -0.000158343 16.8203 0.00180114 
73 0.00186852 -0.00100378 -0.001576 0 0.00392146 -0.00249765 7.24769e-05 13.1708 0.00191668 
77 0.000885755 -0.000475827 -0.000747094 0 0.00257376 -0.00163923 -0.00129376 10.104 0.00130692 
81 0.00123984 -0.000666051 -0.00104574 0 0.00155058 -0.000987592 0.000805185 3.8775 0.000520963 
85 0.000939615 -0.00050477 -0.000792517 0 0.00129961 -0.000827747 0.000238595 3.16099 0.000441133 
89 0.00235403 -0.00126461 -0.0019855 0 0.00360424 -0.00229562 0.000887169 14.181 0.00121903 
93 0.000460276 -0.00024727 -0.000388216 0 0.00102511 -0.000652933 -0.000288313 1.78594 0.00037885 
97 0 0 0 0 0 0 0 0 0 
101 0.000247799 -0.000133119 -0.000209007 0 0.000559684 -0.000356471 -9.38196e-05 0.920688 0.000178774 
105 0.00148025 -0.000795196 -0.00124852 0 0.0030891 -0.00196748 -0.000225892 10.4235 0.000883443 
109 0.000188999 -0.000101531 -0.000159412 0 0.000739279 -0.000470856 0.00014296 2.02069 0.000223947 
113 0.000567686 -0.000304965 -0.000478815 0 0.000957363 -0.00060976 0.000705093 2.07726 0.000206926 
117 0 0 0 0 0 0 0 0 0 
121 0 0 0 0 0 0 0 0 0 
125 0.000163676 -0.000163676 0 0 0 6.53703e-05 0.000237526 0.0353688 -2.50804e-05 
129 0 0 0 0 0 0 0 0 0 
133 0 0 0 0 0 0 0 0 0 
2 3.27248 3.27135 0.0860401 0 -0.000501945 0.0190846 0.0038282 7213.17 0.0760323 
6 2.81839 2.81815 -0.0372123 0 0.00172767 0.130839 -0.00247868 6197.38 0.240427 
10 2.50506 2.50158 -0.132014 0 0.00842721 0.159691 -0.00934293 5528.37 0.369587 
14 2.40082 2.39061 -0.221104 0 0.0172473 0.186481 0.00331288 5342.03 0.503484 
18 2.29827 2.27835 -0.301918 0 0.0304404 0.229711 -0.00390134 5094.16 0.625057 
22 2.3422 2.30793 -0.399208 0 0.0519471 0.30032 0.00559727 5345.36 0.783567 
26 2.27261 2.22232 -0.475458 0 0.0734552 0.343333 -0.00604349 5178.34 0.902058 
30 2.1864 2.11827 -0.54152 0 0.102007 0.399022 0.0109461 5019.49 1.00646 
34 2.13213 2.04323 -0.609258 0 0.132098 0.44301 -0.00492907 4982.58 1.11609 
38 2.11291 1.99938 -0.683292 0 0.172826 0.505704 0.00415639 5078.45 1.24282 
42 1.99912 1.86469 -0.720711 0 0.214068 0.553856 0.000186008 4913.38 1.31048 
46 1.87072 1.71692 -0.742831 0 0.252892 0.584512 -0.0076158 4760.42 1.35488 
50 1.76653 1.55202 -0.843706 0 0.3986 0.733237 0.001174 5053.85 1.41683 
54 0.294765 0.0867392 -0.281714 0 0.412314 0.12695 0.00227179 1522.74 0.380643 
58 0.00583256 -0.00267004 -0.00518552 0 0.00955027 -0.00491747 0.000592223 27.2613 0.00521288 
62 0.00331797 -0.00178243 -0.00279854 0 0.00444383 -0.00283034 -0.000763225 13.5797 0.00199698 
66 0.00262937 -0.00141249 -0.00221776 0 0.00327611 -0.00208654 -0.00159618 13.3722 0.00133508 
70 0.00218127 -0.0011718 -0.00183979 0 0.00429776 -0.00273732 -0.000945156 16.5869 0.00213317 
74 0.00361129 -0.00194001 -0.00304594 0 0.00561643 -0.00357721 0.000708398 16.4599 0.00238389 
78 0.00130993 -0.000703721 -0.00110484 0 0.00332986 -0.00212092 0.000195309 16.1551 0.00161366 
82 0.00170005 -0.000913303 -0.00143389 0 0.00367204 -0.00233887 -0.00215139 13.3699 0.0016014 
86 0.00129319 -0.00069472 -0.00109074 0 0.00433938 -0.00276386 0.000442283 15.6937 0.00199188 
90 0.00146844 -0.000788858 -0.00123856 0 0.00281387 -0.00179221 0.000247173 7.49685 0.00103788 
94 0.000357032 -0.000191799 -0.000301139 0 0.000759339 -0.000483633 0.000118099 2.38873 0.0002716 
98 0.00156549 -0.000840988 -0.00132041 0 0.00299219 -0.00190577 0.000848848 11.2989 0.000956388 
102 0 0 0 0 0 0 0 0 0 
106 0.000395891 -0.000212675 -0.000333915 0 0.000404579 -0.000257682 -0.000251445 1.06743 7.22772e-05 
110 0.00132871 -0.000713788 -0.0011207 0 0.00165025 -0.00105106 -0.00126563 4.79553 0.000320885 
114 0.000172877 -9.28713e-05 -0.000145813 0 0.0012464 -0.00079386 8.2409e-05 1.80443 0.000356077 
118 0 0 0 0 0 0 0 0 0 
122 0 0 0 0 0 0 0 0 0 
126 0 0 0 0 0 0 0 0 0 
130 0 0 0 0 0 0 0 0 0 
134 0 0 0 0 0 0 0 0 0 
3 3.24884 3.2484 0.053353 0 -0.000973193 0.0592529 -0.00703847 7257.88 0.125829 
7 2.73804 2.73731 -0.0632193 0 0.00341767 0.14798 0.00186385 6006.49 0.276167 
11 2.41946 2.41472 -0.151372 0 0.00974605 0.155471 0.00329385 5277.59 0.394521 
15 2.39409 2.38161 -0.244051 0 0.0206091 0.201118 -0.00716167 5354.82 0.539378 
19 2.28464 2.26176 -0.322491 0 0.0337286 0.236552 0.00151542 5073.37 0.656718 
23 2.26905 2.23193 -0.408757 0 0.0547629 0.299021 -8.40108e-05 5129.9 0.794171 
27 2.19593 2.14268 -0.48064 0 0.0811732 0.361869 -0.00169794 5017.36 0.907492 
31 2.15259 2.08014 -0.553737 0 0.10816 0.406309 -0.000704719 4939.72 1.0248 
35 2.08617 1.99319 -0.615856 0 0.135469 0.438441 -0.00446766 4844.03 1.12375 
39 2.03335 1.9175 -0.676556 0 0.176599 0.500516 -0.00301837 4866.51 1.22879 
43 1.96581 1.82652 -0.726784 0 0.222165 0.558336 -0.00226973 4843.35 1.3211 
47 1.9494 1.78139 -0.791709 0 0.287072 0.645927 0.000309222 5082.41 1.45207 
51 1.2919 0.995173 -0.823794 0 0.526654 0.636216 0.00665832 4043.63 1.12389 
55 0.128202 0.0134559 -0.127494 0 0.205516 0.0216904 -0.00244019 692.409 0.167668 
59 0.00558193 -0.00299866 -0.00470807 0 0.00784128 -0.00499425 0.00119083 24.9766 0.00375707 
63 0.00531768 -0.00285666 -0.00448523 0 0.00804957 -0.00512681 0.000243933 26.6783 0.00385246 
67 0.00321042 -0.00172466 -0.00270783 0 0.00508963 -0.00324168 0.000970969 13.968 0.00238201 
71 0.00189761 -0.00101943 -0.00160052 0 0.0027498 -0.00175144 0.000568293 11.3152 0.00116615 
75 0.00123641 -0.000664213 -0.00104285 0 0.00199842 -0.00127284 0.000136068 4.89525 0.000853826 
79 0.00182142 -0.00097848 -0.00153627 0 0.00306146 -0.0019499 -0.000844412 9.20968 0.0012622 
83 0.00216353 -0.00116224 -0.00182484 0 0.00365336 -0.00232683 0.000386791 12.0664 0.00142491 
87 0.00353972 -0.00190157 -0.00298557 0 0.00551904 -0.00351518 -0.000182742 16.5069 0.00194624 
91 0.00029855 -0.000160384 -0.000251812 0 0.000934309 -0.00059508 0.000399344 2.26402 0.000390086 
95 0.00188643 -0.0010134 -0.00159111 0 0.00343306 -0.00218656 -0.00227947 12.1673 0.0011374 
99 0.00195226 -0.00104876 -0.00164663 0 0.00459441 -0.00292624 0.000330263 14.6282 0.00154622 
103 0.00129238 -0.000694271 -0.00109006 0 0.0031121 -0.00198214 9.69131e-05 9.74383 0.000972244 
107 0 0 0 0 0 0 0 0 0 
111 0.000645542 -0.000346798 -0.000544477 0 0.00198696 -0.00126557 0.000181045 11.1961 0.000548091 
115 0.00255026 -0.00137002 -0.00215102 0 0.00653213 -0.00416043 0.00348339 14.0688 0.00154961 
119 0 0 0 0 0 0 0 0 0 
123 0 0 0 0 0 0 0 0 0 
127 0 0 0 0 0 0 0 0 0 
131 0 0 0 0 0 0 0 0 0 
4 3.11839 3.11833 0.0204014 0 -0.000604554 0.0924051 0.00721426 6900.25 0.169141 
8 2.62767 2.62624 -0.0865895 0 0.00509944 0.154665 -0.00142055 5790.64 0.305929 
12 2.3981 2.3918 -0.173642 0 0.0120881 0.166506 0.000560013 5257.61 0.428361 
16 2.38665 2.37169 -0.266738 0 0.0244124 0.217062 0.00300369 5311.12 0.574943 
20 2.32407 2.29745 -0.35073 0 0.0398975 0.261348 -0.00444513 5268.64 0.704542 
24 2.28328 2.24175 -0.433481 0 0.0579908 0.2999 0.00529008 5157.13 0.833742 
28 2.20792 2.14952 -0.504453 0 0.0873061 0.372019 -0.00407902 5048.93 0.946591 
32 2.15275 2.07473 -0.574282 0 0.114622 0.4141 -0.00164426 4975.04 1.05804 
36 2.08703 1.98784 -0.635776 0 0.147024 0.459689 -0.00997146 4853.47 1.15858 
40 2.02452 1.90243 -0.692415 0 0.190571 0.523599 -0.00443424 4915.43 1.2587 
44 1.96116 1.81494 -0.743056 0 0.231229 0.564783 -0.0046277 4854.1 1.3489 
48 1.87589 1.70662 -0.778726 0 0.290507 0.636661 -0.0060552 4892.1 1.43025 
52 0.909035 0.575673 -0.703523 0 0.616189 0.50421 -0.00747408 3325.76 0.892597 
56 0.0571453 -0.00504612 -0.0569221 0 0.085614 -0.00758965 0.00328523 264.287 0.061699 
60 0.00447245 -0.00240265 -0.00377228 0 0.00563747 -0.00359064 0.000649135 18.8738 0.00248227 
64 0.00420947 -0.00226143 -0.00355043 0 0.00605308 -0.00385549 0.000487311 17.1495 0.0027807 
68 0.00305602 -0.00164176 -0.00257758 0 0.00502263 -0.00319911 0.000634905 15.4921 0.00236457 
72 0.00159541 -0.000857064 -0.00134565 0 0.00205692 -0.00131009 0.00047282 7.80643 0.000798403 
76 0.00133534 -0.000717358 -0.00112629 0 0.00183384 -0.00116801 0.000953297 6.66702 0.00070499 
80 0.0011974 -0.000643245 -0.00100996 0 0.00342114 -0.00217894 0.000458764 8.59743 0.00165973 
84 0.00230073 -0.00123597 -0.00194055 0 0.00495872 -0.0031583 0.00164193 14.4623 0.00209773 
88 0.000505793 -0.000271717 -0.000426611 0 0.00141839 -0.000903403 -0.000387302 3.3844 0.000607185 
92 0.00146629 -0.000787685 -0.00123675 0 0.00516269 -0.00328812 -0.000752712 16.2961 0.00216803 
96 0.000198442 -0.000106604 -0.000167376 0 0.000148952 -9.48693e-05 0.000115991 0.0859201 1.95467e-05 
100 0.00209902 -0.00112763 -0.0017704 0 0.003102 -0.00197578 0.000109815 11.7092 0.000844243 
104 0.00144273 -0.000775062 -0.00121686 0 0.000851847 -0.000542573 0.000347117 3.13122 3.02247e-05 
108 0 0 0 0 0 0 0 0 0 
112 0.00166851 -0.000896335 -0.00140731 0 0.00266952 -0.00170026 0.00178564 7.58584 0.000577476 
116 0 0 0 0 0 0 0 0 0 
120 0 0 0 0 0 0 0 0 0 
124 0 0 0 0 0 0 0 0 0 
128 0 0 0 0 0 0 0 0 0 
132 0 0 0 0 0 0 0 0 0 
