ITEM: TIMESTEP
22000
ITEM: NUMBER OF SURFS
134
ITEM: BOX BOUNDS oo ao pp
-10 10
0 10
-0.5 0.5
ITEM: SURFS id f_avg_pressure[1] f_avg_pressure[2] f_avg_pressure[3] f_avg_pressure[4] f_avg_shear[1] f_avg_shear[2] f_avg_shear[3] f_avg_heat_flux[*] f_avg_fdrag[*] 
1 3.3499 3.3477 0.121179 0 0.000527413 -0.0145704 -0.00456059 7425.7 0.025941 
5 2.97814 2.97813 -0.00989182 0 0.000386334 0.116313 0.00252457 6582.31 0.207772 
9 2.54122 2.53889 -0.108863 0 0.0060322 0.140682 0.00236419 5598.89 0.335313 
13 2.436 2.42774 -0.200414 0 0.0143945 0.17437 -0.00520699 5400.14 0.47293 
17 2.34273 2.32535 -0.284796 0 0.0281494 0.22984 0.000895641 5217.03 0.600962 
21 2.28306 2.25339 -0.366836 0 0.0451611 0.277414 0.0016153 5159.16 0.72806 
25 2.29671 2.25052 -0.458305 0 0.0676942 0.332414 0.00275659 5222 0.875709 
29 2.2044 2.141 -0.524876 0 0.0946618 0.386131 -0.00872463 5121.91 0.979806 
33 2.14573 2.06221 -0.592829 0 0.123592 0.429926 -0.00726765 5007.34 1.08897 
37 2.10207 1.99573 -0.660111 0 0.160484 0.485196 0.00378057 4976.1 1.20198 
41 2.06001 1.92873 -0.723651 0 0.204812 0.545879 -0.00404176 5021.19 1.31412 
45 1.91586 1.76577 -0.743336 0 0.241068 0.57265 -0.00146101 4792.77 1.35171 
49 1.81395 1.64274 -0.769299 0 0.313571 0.669591 -0.00893375 4886.93 1.42855 
53 0.538043 0.254276 -0.474166 0 0.528345 0.28333 0.00137831 2260.3 0.592507 
57 0.019717 -0.00548558 -0.0189385 0 0.0299142 -0.00866469 0.000276782 88.9448 0.018642 
61 0.00471294 -0.00253183 -0.00397513 0 0.00737201 -0.00469536 0.000260612 25.2834 0.00367295 
65 0.00236238 -0.00126909 -0.00199255 0 0.00368511 -0.00234711 -0.000701123 11.006 0.0017513 
69 0.00319015 -0.00171375 -0.00269075 0 0.00490313 -0.00312282 -0.000533898 18.0375 0.00220357 
73 0.00205174 -0.00110221 -0.00173054 0 0.00452177 -0.00287999 0.000154978 15.3219 0.00224638 
77 0.000786776 -0.000422655 -0.00066361 0 0.002076 -0.00132221 -0.000721953 7.2435 0.00102997 
81 0.00126551 -0.00067984 -0.00106739 0 0.00180896 -0.00115216 5.8947e-05 4.84872 0.00066502 
85 0.00110959 -0.000596084 -0.000935885 0 0.00177309 -0.00112932 0.000748295 4.43349 0.000653238 
89 0.00248964 -0.00133747 -0.00209988 0 0.00291923 -0.00185933 0.000342292 10.7821 0.000824159 
93 0.000536414 -0.000288173 -0.000452434 0 0.00101622 -0.000647271 -0.000171631 1.81401 0.000354598 
97 0.000244788 -0.000131505 -0.000206465 0 0.000216654 -0.000137995 4.87481e-05 0.375244 3.85798e-05 
101 0.000784931 -0.000421669 -0.000662051 0 0.00111932 -0.000712907 -0.000396484 3.70468 0.000292384 
105 0.00112617 -0.000604983 -0.000949869 0 0.00274205 -0.00174645 -0.000104896 8.5497 0.000823044 
109 0.00063207 -0.000339551 -0.000533121 0 0.0016954 -0.00107982 0.000186308 4.66077 0.000476111 
113 0.000378457 -0.00020331 -0.00031921 0 0.000638242 -0.000406507 0.000470062 1.38484 0.000137951 
117 0 0 0 0 0 0 0 0 0 
121 0 0 0 0 0 0 0 0 0 
125 0.000109118 -0.000109118 0 0 0 4.35802e-05 0.000158351 0.0235792 -1.67203e-05 
129 0 0 0 0 0 0 0 0 0 
133 0 0 0 0 0 0 0 0 0 
2 3.27769 3.27655 0.0861769 0 -0.000570122 0.0216768 0.00742691 7248.49 0.0761516 
6 2.82169 2.82144 -0.0372558 0 0.00173329 0.131265 -0.00221015 6194.3 0.240708 
10 2.4915 2.48804 -0.131299 0 0.00831536 0.157571 -0.000444989 5481.52 0.367577 
14 2.42065 2.41037 -0.222931 0 0.0175116 0.189338 -0.00499952 5372.4 0.507669 
18 2.30401 2.28405 -0.302672 0 0.0310489 0.234304 -0.00211559 5124.11 0.626763 
22 2.33021 2.29611 -0.397164 0 0.0508235 0.293824 0.000779422 5316 0.77927 
26 2.24413 2.19446 -0.4695 0 0.0721686 0.33732 -0.0027527 5079.01 0.890609 
30 2.17173 2.10406 -0.537888 0 0.100336 0.392484 0.00896846 4977.85 0.999262 
34 2.14351 2.05413 -0.612508 0 0.133145 0.44652 -0.00631668 5025.59 1.12222 
38 2.12167 2.00767 -0.686125 0 0.172429 0.504543 0.00848689 5088.93 1.24734 
42 2.00652 1.87159 -0.723378 0 0.213833 0.553248 0.0019781 4940.82 1.31469 
46 1.87355 1.71951 -0.743954 0 0.251824 0.582044 -0.00428233 4737.79 1.35593 
50 1.76228 1.54829 -0.841677 0 0.398709 0.733437 0.00359897 5020.19 1.41419 
54 0.297681 0.0875971 -0.284501 0 0.417687 0.128605 0.000683184 1532.7 0.385396 
58 0.00634201 -0.00290326 -0.00563846 0 0.00904607 -0.00465785 -0.000177202 28.0066 0.00465416 
62 0.00324764 -0.00174465 -0.00273922 0 0.00477699 -0.00304254 -0.00102809 15.0731 0.00227532 
66 0.00187391 -0.00100665 -0.00158056 0 0.00249519 -0.00158918 -0.000919665 9.58861 0.00106637 
70 0.00200711 -0.00107824 -0.0016929 0 0.00344843 -0.00219637 -0.000272329 12.215 0.00161743 
74 0.00276906 -0.00148756 -0.00233556 0 0.00450319 -0.00286816 0.000537751 13.3722 0.00195542 
78 0.000873283 -0.000469147 -0.000736563 0 0.0022199 -0.00141395 0.000130206 10.77 0.00107577 
82 0.00206602 -0.00110991 -0.00174257 0 0.00374074 -0.00238263 -0.000911125 13.1313 0.00152715 
86 0.00111739 -0.000600273 -0.000942456 0 0.0036142 -0.00230197 0.000272487 12.4704 0.00164717 
90 0.00155156 -0.00083351 -0.00130866 0 0.00272416 -0.00173507 0.000376911 6.8493 0.000969013 
94 0.00167054 -0.000897426 -0.00140902 0 0.00273669 -0.00174304 -0.000292955 8.47326 0.000880194 
98 0.00137519 -0.000738762 -0.00115991 0 0.00262696 -0.00167314 0.000641263 9.53265 0.000839458 
102 0 0 0 0 0 0 0 0 0 
106 0.000263928 -0.000141783 -0.00022261 0 0.000269719 -0.000171788 -0.00016763 0.711617 4.81848e-05 
110 0.00141633 -0.00076086 -0.00119461 0 0.00206643 -0.00131613 -0.000405702 4.77249 0.000447363 
114 0.000509794 -0.000273867 -0.000429985 0 0.00116773 -0.000743753 -0.00037921 1.70955 0.000275922 
118 0 0 0 0 0 0 0 0 0 
122 0 0 0 0 0 0 0 0 0 
126 0 0 0 0 0 0 0 0 0 
130 0 0 0 0 0 0 0 0 0 
134 0 0 0 0 0 0 0 0 0 
3 3.20819 3.20775 0.0526854 0 -0.000987219 0.0601068 -0.00300818 7119.66 0.124253 
7 2.72532 2.72459 -0.0629256 0 0.0034192 0.148046 0.00836562 5996.43 0.274886 
11 2.41416 2.40943 -0.151041 0 0.0097148 0.154973 0.00344256 5265.64 0.393656 
15 2.3933 2.38083 -0.24397 0 0.020798 0.202961 -0.00135503 5335.55 0.539244 
19 2.30008 2.27705 -0.324671 0 0.0347367 0.243623 -0.00032899 5132.04 0.66138 
23 2.28854 2.2511 -0.412269 0 0.0555612 0.30338 0.000956815 5192.83 0.801108 
27 2.20658 2.15308 -0.482971 0 0.0806186 0.359396 0.000257981 5026.96 0.911506 
31 2.16987 2.09685 -0.558184 0 0.107326 0.403176 -0.00340922 4992.48 1.03223 
35 2.10649 2.01261 -0.621856 0 0.137197 0.444032 -0.00318888 4922.27 1.13491 
39 2.04038 1.92412 -0.678894 0 0.178177 0.50499 -0.00799569 4882.29 1.2336 
43 1.96002 1.82115 -0.724644 0 0.221756 0.557308 -0.00122829 4830.22 1.31737 
47 1.93982 1.77264 -0.787819 0 0.283799 0.638565 0.000497486 5022.81 1.44363 
51 1.28942 0.993262 -0.822213 0 0.526716 0.636291 0.0078727 4051.65 1.12253 
55 0.130622 0.0137099 -0.129901 0 0.217812 0.0229882 -0.00248332 730.784 0.177278 
59 0.00527995 -0.00283643 -0.00445337 0 0.00718071 -0.00457352 0.000669557 23.3926 0.00337043 
63 0.00468471 -0.00251662 -0.00395134 0 0.00791998 -0.00504427 -0.000291571 28.3738 0.00400859 
67 0.00315355 -0.00169411 -0.00265986 0 0.00468709 -0.00298529 0.000925539 11.9624 0.00211868 
71 0.0023953 -0.0012868 -0.0020203 0 0.00430186 -0.00274 0.000244525 15.0203 0.00203194 
75 0.000824272 -0.000442809 -0.00069523 0 0.00133228 -0.000848561 9.0712e-05 3.2635 0.000569217 
79 0.00214758 -0.0011537 -0.00181138 0 0.00284729 -0.00181349 -0.000703736 8.69179 0.00102625 
83 0.00246316 -0.00132321 -0.00207757 0 0.00352302 -0.00224381 0.000576864 12.2608 0.00125828 
87 0.00359614 -0.00193188 -0.00303317 0 0.00578515 -0.00368466 -0.000514059 17.6279 0.0020731 
91 0.00119442 -0.000641654 -0.00100743 0 0.00404056 -0.00257351 -4.67508e-05 15.8734 0.00171317 
95 0.00170028 -0.000913399 -0.0014341 0 0.00356811 -0.00227258 -0.0010599 11.0704 0.00124788 
99 0.0013015 -0.000699175 -0.00109775 0 0.00306294 -0.00195083 0.000220175 9.75214 0.00103081 
103 0.000861584 -0.000462848 -0.000726704 0 0.00207474 -0.00132143 6.46088e-05 6.49589 0.000648163 
107 0 0 0 0 0 0 0 0 0 
111 0.000968327 -0.000520205 -0.000816728 0 0.00259399 -0.00165221 0.000453438 9.27422 0.000692994 
115 0.00211093 -0.00113401 -0.00178047 0 0.00620186 -0.00395008 0.00225418 15.3783 0.00152132 
119 0 0 0 0 0 0 0 0 0 
123 0 0 0 0 0 0 0 0 0 
127 0 0 0 0 0 0 0 0 0 
131 0 0 0 0 0 0 0 0 0 
4 3.0923 3.09224 0.0202308 0 -0.000586093 0.0895834 0.00480016 6857.09 0.167727 
8 2.6237 2.62227 -0.0864587 0 0.00492586 0.1494 0.00155552 5765.72 0.305447 
12 2.41744 2.4111 -0.175043 0 0.0118658 0.163444 -0.00112392 5317.94 0.431759 
16 2.38081 2.3659 -0.266086 0 0.0250526 0.222755 0.0023532 5287.48 0.573705 
20 2.31885 2.29229 -0.349943 0 0.0407058 0.266643 -0.00367967 5246.31 0.703232 
24 2.27609 2.2347 -0.432118 0 0.0590969 0.30562 0.00631656 5137.93 0.831586 
28 2.21801 2.15934 -0.506758 0 0.0876687 0.373564 -0.0037638 5092.66 0.9509 
32 2.16385 2.08543 -0.577244 0 0.11497 0.415357 0.00222767 5005.02 1.06338 
36 2.11251 2.01211 -0.643538 0 0.149338 0.466926 -0.00947133 4947.2 1.173 
40 2.02827 1.90595 -0.693698 0 0.189803 0.521488 -0.00121562 4911.92 1.26036 
44 1.96708 1.82042 -0.745302 0 0.231646 0.565802 -0.00335573 4851.02 1.3528 
48 1.8743 1.70517 -0.778066 0 0.289582 0.634633 -0.00549707 4878.38 1.42855 
52 0.890582 0.563987 -0.689242 0 0.599246 0.490346 0.000816073 3223.38 0.871156 
56 0.0561112 -0.00495481 -0.055892 0 0.0827406 -0.00733493 0.00243665 250.983 0.0595684 
60 0.00394026 -0.00211675 -0.0033234 0 0.00526581 -0.00335392 0.000896471 17.9186 0.00241645 
64 0.00408418 -0.00219412 -0.00344476 0 0.00554015 -0.00352878 0.000429265 15.4771 0.00245389 
68 0.00221969 -0.00119247 -0.00187218 0 0.00367206 -0.00233888 0.000434225 10.9007 0.00173422 
72 0.00159307 -0.000855807 -0.00134367 0 0.00311607 -0.00198467 0.000301225 11.6604 0.00150401 
76 0.00127157 -0.000683099 -0.0010725 0 0.00155666 -0.000991472 0.000710189 5.29214 0.000551606 
80 0.00142216 -0.000763982 -0.00119953 0 0.00350318 -0.00223118 0.00118944 11.9315 0.0016366 
84 0.00172587 -0.000927155 -0.00145569 0 0.00409609 -0.00260888 0.00124798 10.9022 0.00178567 
88 0.000748229 -0.000401956 -0.000631093 0 0.00176185 -0.00112216 -9.61461e-05 4.13291 0.00072009 
92 0.000977524 -0.000525124 -0.000824498 0 0.00344179 -0.00219208 -0.000501808 10.8641 0.00144536 
96 0.000132295 -7.10693e-05 -0.000111584 0 9.93014e-05 -6.32462e-05 7.73274e-05 0.0572801 1.30311e-05 
100 0.00170774 -0.000917432 -0.00144038 0 0.00305891 -0.00194833 0.000215665 11.4195 0.000915699 
104 0.00160573 -0.000862629 -0.00135434 0 0.00177181 -0.00112853 0.000480438 5.06255 0.000357875 
108 0.000133102 -7.1503e-05 -0.000112265 0 0.000252205 -0.000160633 -0.00010913 0.690671 6.49888e-05 
112 0.00111234 -0.000597557 -0.000938207 0 0.00177968 -0.0011335 0.00119042 5.05723 0.000384984 
116 0 0 0 0 0 0 0 0 0 
120 0 0 0 0 0 0 0 0 0 
124 0 0 0 0 0 0 0 0 0 
128 0 0 0 0 0 0 0 0 0 
132 0 0 0 0 0 0 0 0 0 
