ITEM: TIMESTEP
18000
ITEM: NUMBER OF SURFS
134
ITEM: BOX BOUNDS oo ao pp
-10 10
0 10
-0.5 0.5
ITEM: SURFS id f_avg_pressure[1] f_avg_pressure[2] f_avg_pressure[3] f_avg_pressure[4] f_avg_shear[1] f_avg_shear[2] f_avg_shear[3] f_avg_heat_flux[*] f_avg_fdrag[*] 
1 3.36187 3.35967 0.121612 0 9.81179e-05 -0.00271062 -0.00945507 7488.22 0.0260304 
5 3.00037 3.00035 -0.00996564 0 0.000374482 0.112745 0.00458767 6624.2 0.209321 
9 2.54193 2.5396 -0.108894 0 0.00584157 0.136236 -0.0014951 5604.7 0.335381 
13 2.39759 2.38946 -0.197254 0 0.013759 0.166671 -0.00616129 5273.27 0.465394 
17 2.32388 2.30664 -0.282504 0 0.0279832 0.228482 -0.00102681 5172.84 0.596142 
21 2.28001 2.25038 -0.366346 0 0.0448898 0.275748 -0.000417871 5139.31 0.727021 
25 2.30927 2.26283 -0.460812 0 0.0681574 0.334689 -0.00610377 5251.77 0.880534 
29 2.21689 2.15313 -0.527849 0 0.0967837 0.394787 -0.0142392 5150.31 0.98605 
33 2.13173 2.04876 -0.588961 0 0.121792 0.423664 -0.00459146 4968.22 1.08137 
37 2.05137 1.9476 -0.64419 0 0.15581 0.471065 0.00115937 4842.9 1.17254 
41 2.03911 1.90916 -0.716309 0 0.20059 0.534628 -0.003243 4950.23 1.29947 
45 1.92496 1.77417 -0.746869 0 0.241503 0.573684 0.00208651 4817.27 1.35765 
49 1.82552 1.65322 -0.774207 0 0.316475 0.675794 -0.0110158 4936.43 1.43832 
53 0.541267 0.2558 -0.477008 0 0.53728 0.288121 0.00963395 2287.64 0.600424 
57 0.0200106 -0.00556725 -0.0192205 0 0.0300232 -0.00869627 -0.00096465 90.6496 0.0186629 
61 0.00292002 -0.00156866 -0.00246289 0 0.00448059 -0.00285377 0.00012489 14.9869 0.00220971 
65 0.00258648 -0.00138948 -0.00218156 0 0.00396152 -0.00252316 -0.00116935 13.2835 0.0018644 
69 0.00365394 -0.0019629 -0.00308194 0 0.00480912 -0.00306294 -0.0005078 17.9045 0.00196648 
73 0.00168052 -0.000902787 -0.00141743 0 0.00445494 -0.00283743 0.00019882 15.6355 0.00233348 
77 0.00106291 -0.000570992 -0.000896513 0 0.00308851 -0.00196708 -0.00155252 12.1248 0.00156831 
81 0.00148781 -0.000799261 -0.00125489 0 0.0018607 -0.00118511 0.000966222 4.65299 0.000625155 
85 0.00112754 -0.000605724 -0.000951021 0 0.00155953 -0.000993296 0.000286314 3.79318 0.00052936 
89 0.00216202 -0.00116147 -0.00182355 0 0.00309325 -0.00197017 0.00122737 13.5052 0.00100653 
93 0.000552331 -0.000296724 -0.000465859 0 0.00123013 -0.00078352 -0.000345975 2.14312 0.00045462 
97 0 0 0 0 0 0 0 0 0 
101 0.000297359 -0.000159743 -0.000250808 0 0.000671621 -0.000427765 -0.000112584 1.10483 0.000214529 
105 0.0017763 -0.000954235 -0.00149822 0 0.00370692 -0.00236098 -0.000271071 12.5082 0.00106013 
109 0 0 0 0 0 0 0 0 0 
113 0.000681223 -0.000365958 -0.000574577 0 0.00114884 -0.000731712 0.000846112 2.49271 0.000248312 
117 0 0 0 0 0 0 0 0 0 
121 0 0 0 0 0 0 0 0 0 
125 0.000196412 -0.000196412 0 0 0 7.84443e-05 0.000285031 0.0424425 -3.00965e-05 
129 0 0 0 0 0 0 0 0 0 
133 0 0 0 0 0 0 0 0 0 
2 3.25182 3.2507 0.0854968 0 -0.00039301 0.0149427 -0.000309867 7159.47 0.0755547 
6 2.82609 2.82584 -0.0373138 0 0.00174573 0.132207 -0.00225723 6207.52 0.241084 
10 2.51707 2.51358 -0.132647 0 0.00818399 0.155082 -0.00694922 5548.21 0.371317 
14 2.41335 2.40309 -0.222259 0 0.017369 0.187796 0.000859014 5369.07 0.506118 
18 2.29038 2.27053 -0.300882 0 0.0308464 0.232775 -0.00515655 5077.73 0.62305 
22 2.34026 2.30602 -0.398878 0 0.0525752 0.303951 0.00858347 5344.05 0.783142 
26 2.28677 2.23616 -0.478421 0 0.0739918 0.345841 -0.00664011 5224.07 0.90771 
30 2.17635 2.10854 -0.539031 0 0.101317 0.396325 0.0126699 5006.17 1.00173 
34 2.14247 2.05314 -0.612213 0 0.131805 0.442028 -0.00157922 4996.31 1.12102 
38 2.1124 1.99889 -0.683127 0 0.171508 0.501848 0.00177245 5095.47 1.24179 
42 2.00563 1.87076 -0.723057 0 0.215327 0.557112 -0.0022843 4948.2 1.3151 
46 1.87567 1.72145 -0.744794 0 0.253243 0.585324 -0.0109227 4768.77 1.35824 
50 1.77469 1.55919 -0.847604 0 0.402333 0.740103 0.00117221 5079.71 1.42475 
54 0.294448 0.0866458 -0.281411 0 0.412046 0.126868 0.00135236 1519.22 0.380368 
58 0.00612173 -0.00280242 -0.00544261 0 0.0103451 -0.00532673 0.00110591 29.652 0.00571479 
62 0.00348505 -0.00187219 -0.00293947 0 0.00412029 -0.00262428 -0.000843562 12.539 0.00168686 
66 0.0029088 -0.0015626 -0.00245345 0 0.00346036 -0.0022039 -0.00222012 13.4896 0.00135954 
70 0.00231887 -0.00124571 -0.00195585 0 0.00482438 -0.00307274 -0.000880247 18.9691 0.00244209 
74 0.00401816 -0.00215859 -0.00338912 0 0.00554333 -0.00353065 0.000664481 15.9763 0.00219476 
78 0.00157191 -0.000844465 -0.00132581 0 0.00399583 -0.00254511 0.00023437 19.3861 0.00193639 
82 0.00100451 -0.000539647 -0.000847248 0 0.00292227 -0.00186132 -0.00138857 10.1151 0.00138308 
86 0.00081702 -0.000438913 -0.000689114 0 0.00328041 -0.00208937 0.000159503 9.72304 0.00155293 
90 0.00176213 -0.00094663 -0.00148627 0 0.00337665 -0.00215065 0.000296608 8.99622 0.00124546 
94 0.000428438 -0.000230159 -0.000361367 0 0.000911207 -0.00058036 0.000141719 2.86647 0.00032592 
98 0.00161585 -0.000868041 -0.00136289 0 0.00323514 -0.0020605 0.00130499 11.9992 0.00105237 
102 0 0 0 0 0 0 0 0 0 
106 0.00047507 -0.00025521 -0.000400698 0 0.000485494 -0.000309218 -0.000301735 1.28091 8.67326e-05 
110 0.00121421 -0.000652278 -0.00102413 0 0.00189123 -0.00120454 -0.0015918 5.79525 0.000424536 
114 0.000207453 -0.000111446 -0.000174976 0 0.00149568 -0.000952631 9.88908e-05 2.16532 0.000427292 
118 0 0 0 0 0 0 0 0 0 
122 0 0 0 0 0 0 0 0 0 
126 0 0 0 0 0 0 0 0 0 
130 0 0 0 0 0 0 0 0 0 
134 0 0 0 0 0 0 0 0 0 
3 3.24945 3.24901 0.053363 0 -0.00101073 0.0615383 -0.00539202 7234.7 0.125851 
7 2.73442 2.73369 -0.0631358 0 0.00343277 0.148634 0.000853088 6000.75 0.275805 
11 2.43082 2.42606 -0.152083 0 0.00947771 0.151191 0.00694418 5306.51 0.396323 
15 2.40481 2.39229 -0.245144 0 0.0205469 0.200511 -0.00636337 5385.11 0.54176 
19 2.27263 2.24987 -0.320796 0 0.0338092 0.237118 -0.00100383 5037.6 0.653339 
23 2.25949 2.22253 -0.407036 0 0.0552954 0.301928 -0.000268924 5089.96 0.79109 
27 2.19307 2.13989 -0.480013 0 0.082084 0.365929 -0.00289556 4995.18 0.906723 
31 2.14376 2.07162 -0.551467 0 0.107875 0.405238 0.000813803 4931.73 1.02067 
35 2.09031 1.99715 -0.617078 0 0.135416 0.438267 -0.00427544 4847.6 1.12581 
39 2.01104 1.89645 -0.669131 0 0.174772 0.495339 0.000347938 4805.88 1.21537 
43 1.96912 1.8296 -0.728009 0 0.221717 0.55721 9.74914e-05 4845.74 1.3228 
47 1.93857 1.7715 -0.787313 0 0.287496 0.646881 -0.000312017 5070.04 1.44543 
51 1.27743 0.984024 -0.814565 0 0.521574 0.63008 0.00539108 4003.63 1.11191 
55 0.128753 0.0135136 -0.128041 0 0.208342 0.0219886 -0.00153928 708.939 0.169876 
59 0.00495219 -0.00266036 -0.00417692 0 0.00776844 -0.00494786 0.000774673 24.3369 0.00396302 
63 0.00540553 -0.00290385 -0.00455932 0 0.00823475 -0.00524475 0.000510662 28.4822 0.00395483 
67 0.00350491 -0.00188287 -0.00295621 0 0.00588049 -0.00374539 0.00130637 16.133 0.00282985 
71 0.00206911 -0.00111156 -0.00174518 0 0.00308547 -0.00196524 0.000628753 12.8149 0.00133027 
75 0.00148369 -0.000797056 -0.00125141 0 0.0023981 -0.00152741 0.000163282 5.8743 0.00102459 
79 0.0021857 -0.00117418 -0.00184353 0 0.00367376 -0.00233988 -0.00101329 11.0516 0.00151465 
83 0.00227481 -0.00122203 -0.0019187 0 0.00360883 -0.00229847 0.000245542 11.3293 0.00136524 
87 0.00400897 -0.00215365 -0.00338136 0 0.00540526 -0.00344271 8.93911e-05 16.2896 0.0017494 
91 0.00035826 -0.000192461 -0.000302174 0 0.00112117 -0.000714096 0.000479212 2.71683 0.000468103 
95 0.00121225 -0.000651225 -0.00102247 0 0.00368365 -0.00234617 -0.00152118 12.5614 0.00142543 
99 0.0015491 -0.000832185 -0.00130659 0 0.00355092 -0.00226163 0.000927692 10.3252 0.00118561 
103 0.00075327 -0.000404661 -0.000635347 0 0.00142617 -0.000908347 0.00088497 5.65532 0.000410763 
107 0 0 0 0 0 0 0 0 0 
111 0.00077465 -0.000416158 -0.000653373 0 0.00238435 -0.00151868 0.000217254 13.4354 0.000657709 
115 0.00306032 -0.00164403 -0.00258122 0 0.00783855 -0.00499252 0.00418007 16.8825 0.00185954 
119 0 0 0 0 0 0 0 0 0 
123 0 0 0 0 0 0 0 0 0 
127 0 0 0 0 0 0 0 0 0 
131 0 0 0 0 0 0 0 0 0 
4 3.12324 3.12317 0.0204332 0 -0.000598598 0.0914946 0.00598672 6904.75 0.169404 
8 2.62727 2.62585 -0.0865767 0 0.00507723 0.153991 -0.00520135 5785.69 0.305881 
12 2.42687 2.4205 -0.175725 0 0.0121058 0.16675 0.00218757 5341.68 0.433478 
16 2.40061 2.38557 -0.268299 0 0.0244002 0.216953 0.00609028 5361.62 0.57827 
20 2.32506 2.29843 -0.350879 0 0.0399833 0.26191 -0.00263414 5255.32 0.704863 
24 2.28174 2.24024 -0.433189 0 0.0576322 0.298045 0.00763244 5158.46 0.833064 
28 2.18996 2.13203 -0.50035 0 0.0870103 0.370758 -0.00296324 4993.97 0.939066 
32 2.13016 2.05297 -0.568258 0 0.11111 0.401412 -0.00107114 4909.58 1.04582 
36 2.08438 1.98531 -0.634969 0 0.147102 0.459934 -0.00646773 4859.38 1.15725 
40 2.02469 1.90259 -0.692473 0 0.190258 0.522738 -0.00551604 4925.28 1.25861 
44 1.94694 1.80179 -0.737671 0 0.23072 0.56354 -0.00437183 4824.53 1.3399 
48 1.88304 1.71313 -0.781696 0 0.291541 0.638928 -0.00757676 4926.73 1.43565 
52 0.90782 0.574904 -0.702583 0 0.616075 0.504117 -0.00701328 3317.69 0.891936 
56 0.0551069 -0.00486613 -0.0548917 0 0.0824164 -0.00730619 0.00464662 251.476 0.0593881 
60 0.0045951 -0.00246855 -0.00387573 0 0.00557415 -0.00355031 0.000814769 19.2904 0.00238312 
64 0.00433343 -0.00232803 -0.00365498 0 0.00599741 -0.00382003 0.000341471 17.5372 0.00269103 
68 0.00308444 -0.00165703 -0.00260154 0 0.00485716 -0.00309372 0.000414769 14.6943 0.00223817 
72 0.00191449 -0.00102848 -0.00161478 0 0.00246831 -0.0015721 0.000567384 9.36771 0.000958083 
76 0.00101363 -0.000544532 -0.000854945 0 0.00143138 -0.000911677 0.000348294 4.25021 0.000559995 
80 0.00129497 -0.000695657 -0.00109225 0 0.00312415 -0.00198978 0.00103815 8.18356 0.00145096 
84 0.00276087 -0.00148317 -0.00232865 0 0.00595046 -0.00378996 0.00197032 17.3548 0.00251728 
88 0.000478855 -0.000257245 -0.000403889 0 0.0007827 -0.000498517 -0.0003386 1.63733 0.000278237 
92 0.00152783 -0.000820747 -0.00128866 0 0.00542037 -0.00345223 -0.000458915 18.1643 0.00227934 
96 0.00023813 -0.000127925 -0.000200852 0 0.000178742 -0.000113843 0.000139189 0.103104 2.3456e-05 
100 0.00117563 -0.000631573 -0.000991581 0 0.00260607 -0.0016599 -0.000298292 11.6781 0.000844297 
104 0.00173127 -0.000930074 -0.00146023 0 0.00102222 -0.000651088 0.000416541 3.75746 3.62696e-05 
108 0 0 0 0 0 0 0 0 0 
112 0.00200222 -0.0010756 -0.00168877 0 0.00320343 -0.00204031 0.00214276 9.10301 0.000692971 
116 0 0 0 0 0 0 0 0 0 
120 0 0 0 0 0 0 0 0 0 
124 0 0 0 0 0 0 0 0 0 
128 0 0 0 0 0 0 0 0 0 
132 0 0 0 0 0 0 0 0 0 
