ITEM: TIMESTEP
16000
ITEM: NUMBER OF SURFS
134
ITEM: BOX BOUNDS oo ao pp
-10 10
0 10
-0.5 0.5
ITEM: SURFS id f_avg_pressure[1] f_avg_pressure[2] f_avg_pressure[3] f_avg_pressure[4] f_avg_shear[1] f_avg_shear[2] f_avg_shear[3] f_avg_heat_flux[*] f_avg_fdrag[*] 
1 3.31001 3.30784 0.119736 0 0.000623109 -0.0172141 0.0089269 7354.78 0.0256329 
5 3.0678 3.06778 -0.0101896 0 0.000360986 0.108682 0.00095677 6793.62 0.214024 
9 2.49915 2.49686 -0.107061 0 0.00562291 0.131136 -0.000438941 5477.43 0.329721 
13 2.404 2.39585 -0.197782 0 0.0136906 0.165843 -0.0141919 5299.49 0.466618 
17 2.34362 2.32624 -0.284904 0 0.0276543 0.225797 -0.00585469 5221.65 0.601062 
21 2.30538 2.27542 -0.370423 0 0.0458862 0.281868 0.00317904 5206.86 0.735268 
25 2.31055 2.26408 -0.461066 0 0.0673613 0.33078 0.00473231 5292.03 0.880705 
29 2.17859 2.11594 -0.518731 0 0.0958846 0.391119 -0.0104747 5007.87 0.969356 
33 2.14008 2.05678 -0.591268 0 0.121957 0.424241 -0.00171176 5003.2 1.08545 
37 2.04242 1.9391 -0.641378 0 0.152339 0.460572 0.000471896 4827.3 1.16587 
41 2.02142 1.8926 -0.710095 0 0.197821 0.527246 -0.000331176 4901.95 1.28756 
45 1.93014 1.77894 -0.748877 0 0.244267 0.58025 0.00606816 4843.28 1.36273 
49 1.84608 1.67184 -0.782924 0 0.324022 0.69191 -0.01533 5009.03 1.45743 
53 0.534666 0.25268 -0.471191 0 0.528542 0.283436 0.0148752 2277.14 0.591447 
57 0.0225111 -0.00626295 -0.0216223 0 0.0324772 -0.00940707 0.000604679 99.5332 0.0200046 
61 0.00289439 -0.00155489 -0.00244127 0 0.00337321 -0.00214846 0.000332822 12.3275 0.00137983 
65 0.00248066 -0.00133263 -0.00209231 0 0.00408139 -0.00259951 -0.00194962 12.8627 0.00199249 
69 0.00438471 -0.00235546 -0.00369831 0 0.00559208 -0.00356161 -0.00048031 25.054 0.0022362 
73 0.00185027 -0.00099398 -0.00156061 0 0.00488266 -0.00310985 0.000618699 17.9792 0.00255456 
77 0.00138229 -0.000742563 -0.0011659 0 0.00403662 -0.00257094 -0.00256042 18.5355 0.00205206 
81 0.00159496 -0.000856826 -0.00134527 0 0.00174226 -0.00110968 0.00136684 3.82333 0.000521496 
85 0.000728094 -0.000391139 -0.00061411 0 0.00097913 -0.000623628 8.92176e-06 1.31325 0.000326334 
89 0.00360337 -0.00193578 -0.00303926 0 0.00515542 -0.00328361 0.00204561 22.5087 0.00167755 
93 0.000920552 -0.000494541 -0.000776431 0 0.00205022 -0.00130587 -0.000576625 3.57187 0.000757699 
97 0 0 0 0 0 0 0 0 0 
101 0.000495598 -0.000266238 -0.000418013 0 0.00111937 -0.000712941 -0.000187639 1.84138 0.000357548 
105 0.0029605 -0.00159039 -0.00249704 0 0.00617819 -0.00393496 -0.000451785 20.847 0.00176689 
109 0 0 0 0 0 0 0 0 0 
113 0.00113537 -0.000609929 -0.000957629 0 0.00191473 -0.00121952 0.00141019 4.15451 0.000413853 
117 0 0 0 0 0 0 0 0 0 
121 0 0 0 0 0 0 0 0 0 
125 0.000327353 -0.000327353 0 0 0 0.000130741 0.000475052 0.0707375 -5.01608e-05 
129 0 0 0 0 0 0 0 0 0 
133 0 0 0 0 0 0 0 0 0 
2 3.18135 3.18025 0.0836441 0 -0.00039013 0.0148332 -0.00436775 6982.87 0.0739173 
6 2.86961 2.86935 -0.0378884 0 0.00184389 0.139641 0.000724765 6350.31 0.244803 
10 2.50905 2.50556 -0.132224 0 0.00794535 0.15056 -0.00776147 5521.61 0.370102 
14 2.42306 2.41276 -0.223153 0 0.0167716 0.181337 0.00965053 5385.08 0.508015 
18 2.29319 2.27332 -0.30125 0 0.031214 0.235549 -0.00765728 5023 0.623903 
22 2.34092 2.30667 -0.39899 0 0.0544013 0.314508 0.0134933 5351.15 0.783964 
26 2.25205 2.20221 -0.471158 0 0.073567 0.343856 -0.0123577 5140.76 0.894203 
30 2.16446 2.09702 -0.536087 0 0.0998305 0.390509 0.0173374 4963.79 0.995841 
34 2.15854 2.06854 -0.616805 0 0.132595 0.444675 -0.0102667 5027.87 1.12933 
38 2.11606 2.00236 -0.684311 0 0.170868 0.499977 -0.00268653 5130.72 1.24341 
42 1.99671 1.86244 -0.719842 0 0.213518 0.552434 -0.00603877 4942.42 1.30872 
46 1.88916 1.73383 -0.750151 0 0.258536 0.597558 -0.0144744 4822.3 1.3704 
50 1.79228 1.57465 -0.856005 0 0.408686 0.75179 0.00298146 5181.65 1.44058 
54 0.294948 0.086793 -0.281889 0 0.413997 0.127469 0.00491503 1525.28 0.381968 
58 0.00701946 -0.00321339 -0.00624075 0 0.0109548 -0.00564069 0.000155854 32.3639 0.0058654 
62 0.00467014 -0.00250883 -0.00393903 0 0.0056668 -0.00360927 -0.0012123 15.8313 0.00236958 
66 0.00303089 -0.00162818 -0.00255643 0 0.00295801 -0.00188395 -0.00290138 13.7383 0.000952678 
70 0.00186733 -0.00100315 -0.001575 0 0.0048752 -0.0031051 -0.00187155 16.4692 0.0026423 
74 0.00502901 -0.00270163 -0.00424172 0 0.00383841 -0.00244476 0.00155228 7.81938 0.000737125 
78 0.00175822 -0.000944554 -0.00148295 0 0.00483836 -0.00308175 0.000687779 25.2692 0.00239259 
82 0.000763973 -0.000410423 -0.000644365 0 0.00109636 -0.000698316 -7.39382e-05 2.53355 0.000398175 
86 0.0013617 -0.000731522 -0.00114852 0 0.00546735 -0.00348229 0.000265838 16.2051 0.00258822 
90 0.000246306 -0.000132318 -0.000207747 0 0.000578779 -0.000368635 0.000316235 1.25307 0.000228824 
94 0.000714064 -0.000383599 -0.000602278 0 0.00151868 -0.000967266 0.000236199 4.77745 0.0005432 
98 0.00192895 -0.00103624 -0.00162697 0 0.0038098 -0.00242651 0.00228271 12.6167 0.00123307 
102 0 0 0 0 0 0 0 0 0 
106 0 0 0 0 0 0 0 0 0 
110 0.000916901 -0.000492563 -0.000773362 0 0.00219422 -0.00139752 -0.0024995 9.3227 0.000583086 
114 0.000345754 -0.000185743 -0.000291626 0 0.0024928 -0.00158772 0.000164818 3.60886 0.000712153 
118 0 0 0 0 0 0 0 0 0 
122 0 0 0 0 0 0 0 0 0 
126 0 0 0 0 0 0 0 0 0 
130 0 0 0 0 0 0 0 0 0 
134 0 0 0 0 0 0 0 0 0 
3 3.22214 3.2217 0.0529145 0 -0.00101981 0.062091 -0.0206788 7156.61 0.124792 
7 2.69935 2.69863 -0.0623261 0 0.00343469 0.148717 0.00159281 5875.36 0.272272 
11 2.39106 2.38638 -0.149595 0 0.00962587 0.153554 0.0128265 5183.05 0.38989 
15 2.41858 2.40598 -0.246547 0 0.0203419 0.19851 -0.000460805 5398.44 0.544789 
19 2.26628 2.24359 -0.3199 0 0.0335191 0.235083 -0.0068756 5017.18 0.651459 
23 2.2557 2.21879 -0.406352 0 0.0556845 0.304053 -0.00212403 5124.61 0.789929 
27 2.16107 2.10867 -0.47301 0 0.0817581 0.364476 -0.0117514 4934.33 0.89385 
31 2.12323 2.05178 -0.546186 0 0.105623 0.396777 0.00427628 4897.74 1.01032 
35 2.08355 1.99069 -0.615083 0 0.134336 0.434773 -0.00104135 4820.84 1.12183 
39 2.04238 1.92601 -0.679558 0 0.179685 0.509265 0.0040337 4933.14 1.23559 
43 1.99057 1.84953 -0.73594 0 0.223273 0.561121 0.00637854 4902.58 1.33666 
47 1.91069 1.74601 -0.775987 0 0.285205 0.641728 0.00273306 4981.16 1.42593 
51 1.26443 0.974016 -0.80628 0 0.514845 0.621951 0.00652874 3962.94 1.09955 
55 0.125222 0.013143 -0.12453 0 0.201612 0.0212783 -0.00224922 673.341 0.164439 
59 0.00577452 -0.00310212 -0.00487052 0 0.00835265 -0.00531996 0.00219652 23.7008 0.00407354 
63 0.00640807 -0.00344241 -0.00540492 0 0.00971927 -0.00619025 0.000542293 33.7304 0.00465661 
67 0.00155058 -0.000832985 -0.00130784 0 0.00370933 -0.00236254 0.000141697 11.7905 0.00203612 
71 0.00258348 -0.00138789 -0.00217902 0 0.00407188 -0.00259351 0.00145391 13.2644 0.00180882 
75 0.00203464 -0.00109304 -0.00171611 0 0.00185564 -0.0011819 0.000279065 4.50145 0.000488028 
79 0.00364283 -0.00195696 -0.00307255 0 0.00612293 -0.0038998 -0.00168882 18.4194 0.00252441 
83 0.00174419 -0.000936975 -0.00147115 0 0.00317013 -0.00201906 0.000548691 6.92492 0.00127736 
87 0.000157003 -8.4343e-05 -0.000132424 0 0.00105145 -0.000669687 -0.00014901 3.39838 0.000520313 
91 0.000597101 -0.000320768 -0.000503624 0 0.00186862 -0.00119016 0.000798687 4.52804 0.000780172 
95 0.000422219 -0.000226819 -0.000356122 0 0.000586109 -0.0003733 0.000404642 0.662635 0.000168889 
99 0.00163164 -0.000876525 -0.00137621 0 0.0039517 -0.00251689 0.00121265 9.64641 0.00134105 
103 0 0 0 0 0 0 0 0 0 
107 0 0 0 0 0 0 0 0 0 
111 0.00129108 -0.000693596 -0.00108895 0 0.00397392 -0.00253114 0.00036209 22.3923 0.00109618 
115 0.000690976 -0.000371198 -0.000582804 0 0.000921842 -0.000587138 0.000107048 2.56408 0.000165298 
119 0 0 0 0 0 0 0 0 0 
123 0 0 0 0 0 0 0 0 0 
127 0 0 0 0 0 0 0 0 0 
131 0 0 0 0 0 0 0 0 0 
4 3.15632 3.15625 0.0206495 0 -0.000504999 0.0771883 0.00143903 7003.41 0.171204 
8 2.58159 2.58019 -0.0850713 0 0.00506971 0.153763 -0.00831851 5669.7 0.300572 
12 2.44854 2.44211 -0.177294 0 0.0120162 0.165515 -0.0109622 5401.15 0.437313 
16 2.38039 2.36547 -0.266038 0 0.0252731 0.224715 0.00267775 5295.25 0.573657 
20 2.338 2.31123 -0.352833 0 0.0406648 0.266374 0.00516834 5306.64 0.708926 
24 2.2453 2.20446 -0.426271 0 0.0587802 0.303982 0.0162241 5042.44 0.820509 
28 2.20489 2.14657 -0.503762 0 0.0855784 0.364657 -0.00820365 5053.86 0.944613 
32 2.11278 2.03622 -0.563622 0 0.112166 0.405228 0.0012409 4847.19 1.03824 
36 2.0777 1.97895 -0.632933 0 0.145438 0.454732 0.0036353 4852.37 1.15289 
40 2.04255 1.91937 -0.698581 0 0.191077 0.524989 -0.00420858 4979.95 1.26919 
44 1.95582 1.81 -0.741036 0 0.233266 0.56976 -0.00793446 4879.17 1.34699 
48 1.86275 1.69467 -0.773273 0 0.287923 0.630999 -0.00667442 4865.49 1.41984 
52 0.891913 0.56483 -0.690272 0 0.603496 0.493824 -0.00312691 3268.13 0.874971 
56 0.0556781 -0.00491656 -0.0554606 0 0.0867006 -0.00768598 0.00549674 262.026 0.0626303 
60 0.00434994 -0.00233684 -0.00366895 0 0.00529812 -0.0033745 0.00116996 20.9716 0.00227236 
64 0.00442801 -0.00237884 -0.00373476 0 0.00456848 -0.00290988 0.00176577 11.5139 0.00160583 
68 0.00172754 -0.00092807 -0.00145708 0 0.00242712 -0.00154593 -0.00107661 3.72223 0.00104843 
72 0.000552326 -0.000296713 -0.000465859 0 0.00137284 -0.000874381 -4.14193e-05 6.1909 0.000716068 
76 0.0013738 -0.00073802 -0.00115873 0 0.00160553 -0.00102259 8.4804e-05 4.21333 0.000547781 
80 0.00200494 -0.00107705 -0.00169108 0 0.0045249 -0.00288193 0.00196241 11.4196 0.00206001 
84 0.00460145 -0.00247194 -0.00388109 0 0.00991743 -0.00631661 0.00328386 28.9246 0.00419546 
88 0.000416305 -0.000223643 -0.000351132 0 0.00110485 -0.000703702 -0.000329008 2.30354 0.000466615 
92 0.000629937 -0.000338401 -0.000531325 0 0.00403412 -0.00256933 -0.000382677 14.0479 0.00183141 
96 0.000396884 -0.000213208 -0.000334753 0 0.000297904 -0.000189739 0.000231982 0.17184 3.90933e-05 
100 0.000682834 -0.000366831 -0.000575931 0 0.000589371 -0.000375391 0.000336695 0.985854 9.51581e-05 
104 0.00235103 -0.00126302 -0.00198296 0 0.00106498 -0.000678324 0.000175321 2.21009 -7.79545e-05 
108 0 0 0 0 0 0 0 0 0 
112 0.00175871 -0.000944791 -0.00148339 0 0.00336128 -0.00214085 0.00193013 11.1869 0.00078698 
116 0 0 0 0 0 0 0 0 0 
120 0 0 0 0 0 0 0 0 0 
124 0 0 0 0 0 0 0 0 0 
128 0 0 0 0 0 0 0 0 0 
132 0 0 0 0 0 0 0 0 0 
