ITEM: TIMESTEP
16000
ITEM: NUMBER OF SURFS
134
ITEM: BOX BOUNDS oo ao pp
-10 10
0 10
-0.5 0.5
ITEM: SURFS id f_avg_pressure[1] f_avg_pressure[2] f_avg_pressure[3] f_avg_pressure[4] f_avg_shear[1] f_avg_shear[2] f_avg_shear[3] f_avg_heat_flux[*] f_avg_fdrag[*] 
1 64.139 64.097 2.32015 0 0.00260763 -0.0720388 0.178626 19896.2 0.496623 
9 63.5736 63.5153 -2.72343 0 0.0356258 0.830858 0.0214364 24183.3 8.37332 
17 62.6003 62.136 -7.61007 0 0.170431 1.39156 -0.0254289 23617.8 15.9099 
25 60.2618 59.0498 -12.0251 0 0.427123 2.0974 0.047117 23541.7 22.4675 
33 57.1223 54.8989 -15.7819 0 0.74299 2.58456 0.0450041 23248 27.7209 
41 52.6909 49.3328 -18.5095 0 1.17167 3.12282 0.0361851 22190.7 31.1074 
49 41.2788 37.3827 -17.5064 0 2.46143 5.25608 -0.00487261 22696.4 29.0952 
57 1.4788 -0.411427 -1.42042 0 0.970391 -0.281075 -0.010807 1427 0.426557 
65 0.402058 -0.215989 -0.339116 0 0.218792 -0.139353 0.00328161 402.288 0.00203178 
73 0.368048 -0.197719 -0.31043 0 0.181339 -0.115498 0.00414705 337.204 -0.0107602 
81 0.372427 -0.200071 -0.314124 0 0.177718 -0.113192 0.000978305 351.369 -0.0131654 
89 0.337241 -0.18117 -0.284445 0 0.133433 -0.0849867 -0.0231266 334.083 -0.0248727 
97 0.362293 -0.194631 -0.305574 0 0.143244 -0.0912372 -0.00768225 339.112 -0.0232824 
105 0.430028 -0.231013 -0.362708 0 0.1397 -0.0889767 0.00553271 344.964 -0.0351671 
113 0.462998 -0.248726 -0.390516 0 0.141026 -0.0898217 -0.0202241 363.219 -0.03416 
121 0.40889 -0.40889 0 0 0 0.018171 -0.00369332 200.185 -0.0890359 
129 0.550564 -0.550564 0 0 0 0.0255733 -0.0109438 305.965 -0.0488422 
2 63.6464 63.6244 1.67339 0 -0.00280282 0.106567 0.0811184 20724.8 1.47891 
10 63.2684 63.1805 -3.33417 0 0.0309406 0.586307 -0.107164 22946.7 9.3076 
18 61.8057 61.27 -8.11925 0 0.185556 1.40025 -0.219093 23857.4 16.6378 
26 59.8598 58.5351 -12.5234 0 0.464322 2.17026 0.109948 23095.7 23.1822 
34 56.741 54.3751 -16.2138 0 0.767426 2.57367 -0.0948948 22688.1 28.2918 
42 51.8587 48.3714 -18.6958 0 1.33108 3.44389 0.00363623 22279.8 31.3333 
50 35.9537 31.5879 -17.1718 0 3.18477 5.85847 0.0504949 22274.6 25.257 
58 0.776026 -0.355251 -0.689937 0 0.496913 -0.255863 -0.00509261 714.529 0.107332 
66 0.40434 -0.21721 -0.341043 0 0.229033 -0.14587 -0.00498001 424.607 0.00846988 
74 0.399203 -0.214455 -0.336707 0 0.20382 -0.129817 -0.00094229 378.067 -0.00689582 
82 0.335826 -0.180413 -0.283249 0 0.142258 -0.0906103 -0.00648983 289.078 -0.0221481 
90 0.401719 -0.215807 -0.33883 0 0.173605 -0.110572 0.0158798 342.571 -0.0216298 
98 0.402966 -0.216475 -0.339882 0 0.153796 -0.0979548 -0.00496824 340.703 -0.0278662 
106 0.424263 -0.227917 -0.357845 0 0.126518 -0.0805808 -0.00571631 323.452 -0.0381901 
114 0.480967 -0.25838 -0.405671 0 0.134976 -0.0859692 -0.00443179 408.14 -0.0380929 
122 0.451758 -0.451758 0 0 0 0.0183448 -0.0107526 223.199 -0.0910836 
130 0.555248 -0.555248 0 0 0 0.00203068 0.0212175 235.224 -0.0403017 
3 63.891 63.8824 1.04923 0 -0.00229941 0.139999 0.297252 21600.5 2.47517 
11 63.5675 63.443 -3.97706 0 0.0512113 0.816934 0.0306151 23118.3 10.3321 
19 62.2041 61.5813 -8.78051 0 0.24192 1.69668 -0.0967864 23718.4 17.687 
27 59.5302 58.0868 -13.0298 0 0.48659 2.16921 0.0146586 23613.1 23.9021 
35 56.3642 53.8522 -16.6392 0 0.908912 2.94166 0.0158455 23026.2 28.909 
43 51.2613 47.6292 -18.9519 0 1.52427 3.83073 -0.0677969 23412.8 31.6968 
51 27.0929 20.8701 -17.2761 0 4.69418 5.67074 -0.101353 20112.1 18.8796 
59 0.521038 -0.279906 -0.439469 0 0.330014 -0.210192 0.0187366 577.017 0.0388754 
67 0.382068 -0.20525 -0.322255 0 0.197296 -0.125661 0.00186913 344.044 -0.00563078 
75 0.350229 -0.188147 -0.2954 0 0.202069 -0.128703 -0.0145347 361.508 0.00890959 
83 0.366645 -0.196961 -0.309249 0 0.165545 -0.105436 0.00187955 322.2 -0.0179697 
91 0.320412 -0.172128 -0.270251 0 0.142495 -0.0907582 0.0140176 278.235 -0.0149361 
99 0.364778 -0.195961 -0.307673 0 0.139218 -0.0886698 0.00945234 304.996 -0.024745 
107 0.408746 -0.219586 -0.344754 0 0.14448 -0.0920243 -0.00771747 318.757 -0.0276498 
115 0.459792 -0.247004 -0.387811 0 0.10648 -0.067819 -0.0044121 369.099 -0.042184 
123 0.476254 -0.476254 0 0 0 0.015181 0.0180266 244.841 -0.0883406 
131 0.583417 -0.583417 0 0 -1.85614e-16 0.0147659 -0.0042041 275.481 -0.0329361 
4 63.6945 63.6931 0.416708 0 -0.00105972 0.161977 -0.17754 22546.2 3.45539 
12 63.2435 63.0775 -4.57935 0 0.0638758 0.879847 -0.0106828 23963.7 11.2515 
20 61.6953 60.9888 -9.31057 0 0.270486 1.77181 0.0958062 23514.1 18.4653 
28 59.1623 57.5974 -13.5171 0 0.508699 2.16761 -0.0172316 22705.9 24.5897 
36 55.7324 53.0834 -16.9778 0 0.906885 2.8355 0.0117167 22342.1 29.3002 
44 50.4023 46.6445 -19.0968 0 1.57575 3.84883 -0.00770194 22656.1 31.7884 
52 19.1826 12.1479 -14.8458 0 4.99567 4.08782 -0.0213519 15716.4 12.839 
60 0.478476 -0.257043 -0.403569 0 0.285638 -0.18193 -0.00816656 452.091 0.0219429 
68 0.387179 -0.208001 -0.326563 0 0.20262 -0.129056 -0.00691252 346.75 -0.00376343 
76 0.352353 -0.189288 -0.297192 0 0.185583 -0.118201 0.00501103 331.759 -0.00233933 
84 0.347789 -0.186835 -0.293342 0 0.161794 -0.10305 0.008874 305.025 -0.0141107 
92 0.368142 -0.197765 -0.310512 0 0.144519 -0.0920442 0.017507 319.549 -0.0263862 
100 0.369381 -0.198438 -0.311551 0 0.120749 -0.0769093 -0.0269049 296.256 -0.0332199 
108 0.42001 -0.225632 -0.354258 0 0.146643 -0.0933987 -0.0199609 349.879 -0.028408 
116 0.489596 -0.263015 -0.412949 0 0.104556 -0.066594 0.00404325 386.063 -0.0462219 
124 0.474208 -0.474208 0 0 0 0.0360331 0.0128687 222.15 -0.0803124 
132 0.511697 -0.511697 0 0 0 0.00692707 -0.0121612 225.122 -0.0206337 
5 63.6233 63.6229 -0.211323 0 0.00112728 0.339391 -0.0324247 22940.7 4.43822 
13 63.2698 63.0553 -5.20532 0 0.0827152 1.00198 -0.00685688 23194.2 12.2269 
21 61.4703 60.6716 -9.8769 0 0.299867 1.84202 -0.0390677 23802 19.3125 
29 59.1559 57.4546 -14.0852 0 0.593796 2.42213 0.136428 23264.6 25.4404 
37 55.2786 52.4823 -17.3591 0 1.0595 3.20323 0.0362875 23103 29.8468 
45 48.7494 44.9306 -18.9144 0 1.60591 3.8148 0.122567 21985 31.3446 
53 12.4062 5.8631 -10.9333 0 4.04834 2.17096 0.0357378 9959.75 7.50374 
61 0.500123 -0.26867 -0.421829 0 0.297467 -0.189462 -0.00415173 501.679 0.0218519 
69 0.365221 -0.196196 -0.308048 0 0.204634 -0.130332 -0.00058597 373.081 0.00582944 
77 0.313519 -0.168422 -0.264439 0 0.153909 -0.0980249 0.00113701 282.876 -0.00904116 
85 0.334907 -0.179915 -0.282477 0 0.145664 -0.0927764 0.0231628 278.075 -0.0190093 
93 0.360593 -0.193718 -0.304139 0 0.157802 -0.10051 -0.0117223 353.08 -0.0174934 
101 0.379748 -0.204003 -0.320299 0 0.139027 -0.0885482 0.00926086 344.163 -0.0272314 
109 0.460143 -0.247191 -0.388108 0 0.135694 -0.086425 0.000833212 360.066 -0.0391525 
117 0.33739 -0.33739 0 0 0 0.00187017 -0.0192955 213.412 -0.0952346 
125 0.536132 -0.536132 0 0 0 -0.000588737 0.0136943 270.37 -0.0821525 
133 0.552842 -0.552842 0 0 0 -0.00554602 0.00015131 240.667 -0.0133757 
6 63.9747 63.9691 -0.844681 0 0.0065499 0.496035 0.0333714 23336.5 5.45466 
14 63.0856 62.8175 -5.8099 0 0.0960773 1.0388 -0.11993 23739.3 13.1552 
22 61.0161 60.1233 -10.3997 0 0.305509 1.76623 0.163683 23332 20.0646 
30 58.4214 56.6012 -14.4696 0 0.608841 2.38161 -0.0566729 23026.9 25.9335 
38 54.43 51.5053 -17.6021 0 1.01572 2.9721 0.0525333 22199.9 30.0499 
46 47.727 43.8031 -18.9516 0 1.82556 4.21944 -0.0173419 22662.1 31.3844 
54 7.79871 2.29489 -7.45341 0 3.11255 0.958347 0.0223705 6497.76 4.12442 
62 0.455804 -0.244861 -0.384448 0 0.264991 -0.168777 -0.000863271 470.875 0.0151042 
70 0.395147 -0.212276 -0.333287 0 0.203308 -0.12949 0.0165678 337.053 -0.00612031 
78 0.364684 -0.195917 -0.30759 0 0.167053 -0.106403 0.00599123 329.42 -0.0177358 
86 0.358954 -0.192834 -0.302759 0 0.149539 -0.0952448 -0.00155826 292.288 -0.0236619 
94 0.366017 -0.196627 -0.308718 0 0.134291 -0.0855317 0.00259709 265.202 -0.0298311 
102 0.374774 -0.20133 -0.316103 0 0.126863 -0.0808004 -0.00459465 279.395 -0.030577 
110 0.423469 -0.227489 -0.357176 0 0.103713 -0.066056 0.00328052 338.692 -0.0424129 
118 0.343258 -0.343258 0 0 0 -0.0107401 0.0145887 204.626 -0.0913544 
126 0.54739 -0.54739 0 0 0 -0.0111382 -0.00894137 272.813 -0.0750482 
134 0.549681 -0.549681 0 0 0 0.0195736 0.00288759 286.502 -0.00443308 
7 64.1143 64.0972 -1.48035 0 0.011103 0.480745 -0.0896084 23037.5 6.45984 
15 62.7635 62.4366 -6.39805 0 0.126177 1.23132 -0.0815971 23679.5 14.0474 
23 60.9205 59.9238 -10.9745 0 0.346882 1.89407 -0.00394765 23658.8 20.9321 
31 58.0876 56.1328 -14.9426 0 0.698378 2.6235 -0.103783 23784 26.6144 
39 54.2155 51.1265 -18.0391 0 1.15594 3.27617 0.0310953 22681.5 30.6786 
47 46.1629 42.1844 -18.7481 0 1.98908 4.47554 -0.00360306 22784.7 31.0101 
55 4.67462 0.49064 -4.6488 0 2.26219 0.238754 -0.00833087 3985.3 2.10785 
63 0.414068 -0.222437 -0.349247 0 0.216929 -0.138163 -0.00043122 367.082 -0.00408634 
71 0.375663 -0.201813 -0.316851 0 0.206928 -0.131799 -0.00542213 361.081 0.00344747 
79 0.365304 -0.196244 -0.308115 0 0.166202 -0.105857 -0.0118314 325.05 -0.0182041 
87 0.36439 -0.195753 -0.307345 0 0.150091 -0.0955954 0.00174072 338.914 -0.0245671 
95 0.346846 -0.186328 -0.292548 0 0.124332 -0.0791889 -0.0271468 254.868 -0.0291418 
103 0.383602 -0.206073 -0.32355 0 0.130941 -0.0833979 0.00682593 311.358 -0.0302118 
111 0.424219 -0.227899 -0.357804 0 0.124544 -0.0793265 -0.0116029 363.348 -0.0345383 
119 0.394055 -0.394055 0 0 0 -0.00706815 0.0207759 232.246 -0.0985175 
127 0.547254 -0.547254 0 0 0 0.031402 0.00159472 231.779 -0.0662025 
8 63.7702 63.7356 -2.10142 0 0.0171871 0.52128 0.0570453 23080.3 7.41213 
16 62.9798 62.5852 -7.03879 0 0.145765 1.29607 0.0800374 23851.1 15.0522 
24 60.3646 59.2667 -11.4602 0 0.38462 1.98906 0.0574313 22937.4 21.6258 
32 57.6916 55.6009 -15.3902 0 0.714503 2.58131 -0.0185136 23085.7 27.2152 
40 53.7326 50.4922 -18.3773 0 1.22292 3.36001 -0.14644 22871.5 31.1008 
48 44.3474 40.3457 -18.4096 0 2.163 4.74033 0.0357155 22871.1 30.4427 
56 2.62258 -0.231583 -2.61234 0 1.55487 -0.137839 0.0283076 2583.98 1.01338 
64 0.448863 -0.24114 -0.378588 0 0.266961 -0.17004 -0.00377047 454.413 0.0189359 
72 0.342664 -0.184081 -0.28902 0 0.180739 -0.115115 -0.0141841 307.295 -0.00222431 
80 0.309948 -0.166504 -0.261427 0 0.149186 -0.0950167 -0.00969863 290.762 -0.0103472 
88 0.346145 -0.185952 -0.291955 0 0.15365 -0.0978626 -0.0327916 345.802 -0.0171048 
96 0.379871 -0.204068 -0.320403 0 0.160664 -0.102328 -0.00301689 339.342 -0.0200344 
104 0.420022 -0.225644 -0.354264 0 0.142511 -0.0907703 0.00886001 367.733 -0.0327234 
112 0.42569 -0.228683 -0.359049 0 0.105834 -0.0674073 0.0119434 323.069 -0.0400082 
120 0.427305 -0.427305 0 0 0 0.0072255 0.0318986 231.636 -0.0999378 
128 0.528469 -0.528469 0 0 0 0.0341084 9.76996e-05 263.838 -0.0554062 
