ITEM: TIMESTEP
14000
ITEM: NUMBER OF SURFS
134
ITEM: BOX BOUNDS oo ao pp
-10 10
0 10
-0.5 0.5
ITEM: SURFS id f_avg_pressure[1] f_avg_pressure[2] f_avg_pressure[3] f_avg_pressure[4] f_avg_shear[1] f_avg_shear[2] f_avg_shear[3] f_avg_heat_flux[*] f_avg_fdrag[*] 
1 63.9455 63.9037 2.31316 0 -0.00266032 0.0734945 0.544635 18954.2 0.495085 
9 63.3361 63.2779 -2.71325 0 0.0347257 0.809866 0.00171453 23745.5 8.34193 
17 62.4637 62.0004 -7.59346 0 0.170801 1.39458 -0.0294044 23564.3 15.8753 
25 60.4907 59.2741 -12.0708 0 0.403271 1.98027 0.0931294 23241.9 22.5432 
33 56.9559 54.739 -15.7359 0 0.760884 2.64681 0.0412876 22808.4 27.6502 
41 52.4625 49.119 -18.4293 0 1.18376 3.15504 -0.00286652 22028.3 30.9832 
49 41.0932 37.2147 -17.4277 0 2.44661 5.22444 -0.0646585 22327.9 28.9616 
57 1.48523 -0.413213 -1.42659 0 0.973455 -0.281963 -0.0173634 1448.41 0.427533 
65 0.385571 -0.207132 -0.32521 0 0.1984 -0.126365 -0.00207941 361.057 -0.00632926 
73 0.342724 -0.184114 -0.289071 0 0.17478 -0.11132 0.0213966 371.912 -0.0061323 
81 0.346919 -0.186368 -0.292608 0 0.191793 -0.122156 -0.0170823 341.555 0.0031953 
89 0.358761 -0.192731 -0.302596 0 0.144662 -0.0921386 -0.0144021 382.242 -0.0250456 
97 0.352937 -0.189604 -0.297682 0 0.150894 -0.0961095 0.0169526 319.551 -0.0175391 
105 0.430008 -0.231002 -0.362691 0 0.132287 -0.0842554 0.00372867 357.436 -0.0380178 
113 0.447269 -0.240276 -0.377249 0 0.128165 -0.0816304 -0.0344203 317.236 -0.0355591 
121 0.398645 -0.398645 0 0 0 0.01912 0.00457558 181.198 -0.0868051 
129 0.535307 -0.535307 0 0 0 0.0419192 -0.0123977 292.721 -0.0474887 
2 63.4402 63.4183 1.66797 0 -0.00033864 0.0128755 -0.0496581 19992.3 1.47418 
10 63.4034 63.3153 -3.34128 0 0.0351253 0.665604 -0.103761 23064.3 9.32805 
18 61.9829 61.4458 -8.14254 0 0.210706 1.59004 -0.249555 23590.7 16.6922 
26 60.0253 58.697 -12.5581 0 0.466675 2.18126 0.0577949 23118.7 23.2467 
34 56.5314 54.1743 -16.1539 0 0.714606 2.39653 0.0811345 22485 28.1617 
42 52.1043 48.6005 -18.7843 0 1.35597 3.50828 0.147826 22149.8 31.4935 
50 35.9877 31.6179 -17.188 0 3.20728 5.89988 0.181831 22481 25.2951 
58 0.779352 -0.356774 -0.692894 0 0.498672 -0.256768 -0.0230954 674.638 0.107511 
66 0.4019 -0.215899 -0.338986 0 0.223489 -0.142339 -0.00734936 351.186 0.00543685 
74 0.412945 -0.221838 -0.348299 0 0.177558 -0.11309 -0.00430259 370.013 -0.0287122 
82 0.362635 -0.194816 -0.305861 0 0.164859 -0.105006 -0.00712518 318.923 -0.0173894 
90 0.416085 -0.223525 -0.350947 0 0.187366 -0.119337 0.0219425 328.063 -0.0185323 
98 0.400365 -0.215078 -0.337688 0 0.152077 -0.0968599 -0.012116 304.533 -0.0280092 
106 0.455337 -0.24461 -0.384055 0 0.129264 -0.0823301 -0.00398388 390.652 -0.0434429 
114 0.417965 -0.224535 -0.352532 0 0.130199 -0.0829263 -0.000595712 356.91 -0.0291202 
122 0.43028 -0.43028 0 0 0 0.0179326 -0.0123296 196.999 -0.0867532 
130 0.595845 -0.595845 0 0 0 0.0156553 0.0228447 244.138 -0.0432484 
3 63.9472 63.9386 1.05015 0 -0.000941954 0.0573509 0.454763 20951.5 2.4774 
11 63.5495 63.425 -3.97593 0 0.0446001 0.711471 0.113635 23271.8 10.3281 
19 62.0765 61.455 -8.76249 0 0.229484 1.60947 -0.137193 23286.3 17.6473 
27 58.4838 57.0657 -12.8008 0 0.502774 2.24136 0.112673 22674.6 23.492 
35 56.5094 53.9909 -16.6821 0 0.916847 2.96734 0.00513602 22838.2 28.9865 
43 51.3192 47.6831 -18.9734 0 1.49295 3.75201 -0.163423 23294.3 31.7114 
51 27.0335 20.8243 -17.2382 0 4.58095 5.53395 -0.0643402 19923.1 18.7622 
59 0.483981 -0.259999 -0.408214 0 0.275415 -0.175417 0.0154477 542.143 0.0119603 
67 0.375697 -0.201828 -0.316882 0 0.16796 -0.106977 0.0165505 309.678 -0.023974 
75 0.352318 -0.189269 -0.297162 0 0.195331 -0.124411 -0.0227334 375.968 0.00387925 
83 0.317566 -0.170596 -0.267853 0 0.141505 -0.0901245 -0.0373522 296.321 -0.01664 
91 0.376672 -0.202352 -0.317703 0 0.151276 -0.0963505 -0.00105803 354.894 -0.0257442 
99 0.373518 -0.200656 -0.315045 0 0.147805 -0.0941391 0.0269276 370.723 -0.0230477 
107 0.433227 -0.232737 -0.365402 0 0.158843 -0.101172 -0.0102654 367.044 -0.0272039 
115 0.425478 -0.22857 -0.358869 0 0.116768 -0.0743715 -0.0302963 356.156 -0.033562 
123 0.517269 -0.517269 0 0 0 0.0206455 0.0154876 270.659 -0.0959486 
131 0.541767 -0.541767 0 0 -1.71706e-16 0.0213322 -0.0100732 265.295 -0.0305848 
4 63.6714 63.67 0.416557 0 -0.000939898 0.143662 -0.0508456 21890.5 3.45415 
12 63.6094 63.4425 -4.60585 0 0.0605549 0.834103 0.00560159 24222.1 11.3159 
20 61.6898 60.9833 -9.30974 0 0.27175 1.78009 -0.055379 22880.5 18.464 
28 59.0306 57.4692 -13.487 0 0.484534 2.06464 -0.135219 22136.4 24.5252 
36 55.9661 53.306 -17.049 0 0.897707 2.8068 0.0737074 22163.5 29.416 
44 50.5969 46.8245 -19.1705 0 1.5893 3.88192 -0.00209774 22712.6 31.9161 
52 19.1009 12.0962 -14.7827 0 4.90679 4.01508 -0.102652 15884.2 12.7337 
60 0.466345 -0.250526 -0.393337 0 0.262007 -0.166879 0.0110934 462.917 0.00881044 
68 0.429297 -0.230627 -0.362087 0 0.244767 -0.155902 -0.00522053 426.297 0.00988901 
76 0.315047 -0.169246 -0.265726 0 0.186922 -0.119054 -0.00311977 287.96 0.011161 
84 0.328097 -0.176257 -0.276733 0 0.15157 -0.0965377 0.0263143 341.121 -0.0139108 
92 0.360769 -0.193804 -0.304293 0 0.139717 -0.0889859 0.0296167 301.485 -0.0268028 
100 0.36902 -0.198245 -0.311248 0 0.119576 -0.076162 -0.0531255 293.045 -0.0336388 
108 0.393673 -0.211483 -0.332044 0 0.154122 -0.0981622 -0.033955 333.355 -0.0206299 
116 0.462327 -0.248366 -0.38995 0 0.121073 -0.0771134 0.0115885 350.797 -0.0371312 
124 0.468015 -0.468015 0 0 0 0.0703773 0.0388846 246.567 -0.0792636 
132 0.539768 -0.539768 0 0 0 -0.00474325 -0.0134188 237.368 -0.0217657 
5 63.6024 63.6021 -0.211254 0 0.00141124 0.424883 0.0499031 22562.3 4.43678 
13 63.1488 62.9347 -5.19537 0 0.0775771 0.939741 0.0277039 22910.6 12.2026 
21 61.185 60.39 -9.83106 0 0.311107 1.91106 0.00730017 23278.6 19.2269 
29 58.6874 56.9996 -13.9737 0 0.595935 2.43086 0.210811 22491.8 25.2419 
37 55.109 52.3212 -17.3058 0 1.0518 3.17994 0.180843 22582.7 29.7527 
45 48.6091 44.8012 -18.8599 0 1.51948 3.60948 0.00216532 21862 31.1992 
53 12.4792 5.89763 -10.9977 0 4.09241 2.1946 0.0630568 9753.36 7.56325 
61 0.54217 -0.291258 -0.457293 0 0.317012 -0.201911 0.0108029 497.134 0.0195435 
69 0.344978 -0.185322 -0.290974 0 0.2194 -0.139736 0.012383 400.599 0.0235444 
77 0.339341 -0.182294 -0.286219 0 0.202105 -0.128721 -0.00447852 358.205 0.0123415 
85 0.280466 -0.150669 -0.236559 0 0.117986 -0.0751477 0.00893871 251.5 -0.0181391 
93 0.344374 -0.185005 -0.290459 0 0.14234 -0.090662 0.0134695 347.432 -0.0207803 
101 0.411244 -0.220923 -0.346865 0 0.139637 -0.0889369 -0.0153359 358.841 -0.0340668 
109 0.468799 -0.251841 -0.395409 0 0.132691 -0.0845122 -0.0329656 308.992 -0.0418399 
117 0.327377 -0.327377 0 0 0 -0.00638217 -0.0267022 189.702 -0.0924082 
125 0.555592 -0.555592 0 0 0 -0.0131136 -0.00829728 303.237 -0.0851342 
133 0.558586 -0.558586 0 0 0 -0.0394536 -0.0058098 204.316 -0.0135147 
6 63.7159 63.7104 -0.841264 0 0.00584281 0.442486 0.123315 22802.3 5.43254 
14 63.9817 63.7097 -5.89242 0 0.0994965 1.07577 -0.127441 23924.1 13.3425 
22 60.6912 59.8031 -10.3443 0 0.299718 1.73275 0.127474 22701.4 19.9564 
30 58.5714 56.7465 -14.5068 0 0.653092 2.55471 -0.0923332 22670.4 26.0194 
38 54.4938 51.5656 -17.6227 0 1.05201 3.07829 0.191112 22037 30.1052 
46 47.7076 43.7852 -18.9438 0 1.84098 4.25508 0.0966326 22150.1 31.3827 
54 8.00831 2.35656 -7.65373 0 3.11431 0.958888 0.0181498 6523.06 4.17281 
62 0.437543 -0.235051 -0.369046 0 0.256136 -0.163137 -0.0180396 434.523 0.0158206 
70 0.393155 -0.211206 -0.331606 0 0.17311 -0.110257 0.0258884 326.554 -0.0259971 
78 0.410742 -0.22066 -0.346436 0 0.180603 -0.115034 -0.00743281 331.323 -0.0246131 
86 0.324963 -0.174574 -0.274089 0 0.147377 -0.0938679 -0.00956262 242.921 -0.0148638 
94 0.309124 -0.166063 -0.260731 0 0.109578 -0.0697917 0.0361586 207.861 -0.0270313 
102 0.330694 -0.177651 -0.278925 0 0.135686 -0.0864203 -0.0137841 230.041 -0.0172309 
110 0.444913 -0.239009 -0.375263 0 0.115606 -0.0736305 0.0148509 387.08 -0.0422851 
118 0.361156 -0.361156 0 0 0 0.000226936 -0.0126294 227.03 -0.0961177 
126 0.5658 -0.5658 0 0 0 0.00597528 -0.000144316 286.801 -0.0775723 
134 0.635728 -0.635728 0 0 0 -0.0418672 -0.0200824 222.564 -0.00512703 
7 64.2348 64.2177 -1.48313 0 0.00806395 0.349158 -0.104378 22461 6.47167 
15 63.0968 62.7681 -6.43202 0 0.116974 1.14152 -0.0293228 23766.1 14.1197 
23 60.723 59.7296 -10.9389 0 0.337284 1.84167 0.104963 23072.8 20.8613 
31 57.6376 55.6979 -14.8269 0 0.662922 2.4903 -0.106968 23277.6 26.3941 
39 54.0023 50.9254 -17.9681 0 1.15931 3.28572 0.0293448 22358.5 30.5626 
47 46.0102 42.0448 -18.6861 0 2.03567 4.58037 -0.201265 22487.6 30.9448 
55 4.81171 0.505029 -4.78514 0 2.34379 0.247367 -0.0728268 4186.8 2.18136 
63 0.413706 -0.222243 -0.348942 0 0.20472 -0.130387 -0.000423091 400.832 -0.0129995 
71 0.401182 -0.215522 -0.338374 0 0.238237 -0.151741 -0.000451429 409.636 0.0153087 
79 0.340604 -0.182975 -0.287283 0 0.138791 -0.0883984 -0.0211606 272.96 -0.0267741 
87 0.33349 -0.179153 -0.281282 0 0.126648 -0.0806645 -0.0182594 265.181 -0.0282483 
95 0.351222 -0.188678 -0.296239 0 0.132321 -0.0842772 -0.011727 244.972 -0.0264915 
103 0.352384 -0.189303 -0.297219 0 0.125985 -0.0802413 0.0244221 324.857 -0.0254612 
111 0.422878 -0.227178 -0.356673 0 0.126639 -0.080661 0.00639194 406.044 -0.0335972 
119 0.421081 -0.421081 0 0 0 -0.0187616 0.014591 236.724 -0.105274 
127 0.565602 -0.565602 0 0 0 0.0541181 0.00866117 211.169 -0.0684221 
8 63.4973 63.4628 -2.09243 0 0.0149283 0.452771 -0.0549977 22453.3 7.38015 
16 63.3657 62.9687 -7.08192 0 0.183801 1.63426 0.0828274 24003.4 15.1534 
24 60.2923 59.1958 -11.4465 0 0.402153 2.07974 0.0930187 22353 21.6065 
32 57.6239 55.5357 -15.3722 0 0.712085 2.57258 -0.0254515 22726.1 27.1825 
40 53.8585 50.6105 -18.4204 0 1.24455 3.41944 -0.227447 22769.4 31.1849 
48 44.4979 40.4827 -18.4721 0 2.22189 4.86938 0.0381273 22743.9 30.583 
56 2.61127 -0.230584 -2.60107 0 1.61767 -0.143406 0.0181614 2782.97 1.06223 
64 0.504365 -0.270958 -0.425401 0 0.345432 -0.220022 -0.00227109 592.092 0.0546176 
72 0.366335 -0.196798 -0.308986 0 0.189296 -0.120565 -0.0106261 313 -0.00499198 
80 0.290041 -0.15581 -0.244637 0 0.135094 -0.0860415 -0.00873144 246.101 -0.0123775 
88 0.400982 -0.215411 -0.338208 0 0.161901 -0.103118 -0.0556257 369.642 -0.0283345 
96 0.36238 -0.194672 -0.30565 0 0.146127 -0.0930698 0.00190371 329.812 -0.0224072 
104 0.45216 -0.242909 -0.381371 0 0.129499 -0.0824828 0.0461375 386.502 -0.0446411 
112 0.437226 -0.23488 -0.368779 0 0.112281 -0.071513 -0.00695113 330.803 -0.0399271 
120 0.437786 -0.437786 0 0 0 1.27895e-05 0.025343 230.695 -0.102389 
128 0.516414 -0.516414 0 0 0 0.0206447 0.00138795 270.595 -0.0541423 
