ITEM: TIMESTEP
15000
ITEM: NUMBER OF SURFS
134
ITEM: BOX BOUNDS oo ao pp
-10 10
0 10
-0.5 0.5
ITEM: SURFS id f_avg_pressure[1] f_avg_pressure[2] f_avg_pressure[3] f_avg_pressure[4] f_avg_shear[1] f_avg_shear[2] f_avg_shear[3] f_avg_heat_flux[*] f_avg_fdrag[*] 
1 63.8872 63.8454 2.31105 0 -0.00203529 0.0562273 0.21207 19750.9 0.494638 
9 63.4326 63.3744 -2.71739 0 0.034949 0.815074 0.0354694 23884.1 8.35468 
17 62.6273 62.1629 -7.61335 0 0.174369 1.42372 -0.0191393 23679.4 15.9177 
25 60.3005 59.0878 -12.0329 0 0.414841 2.03709 0.0857231 23545.7 22.4772 
33 57.2268 54.9994 -15.8108 0 0.775072 2.69616 -0.018261 23185.1 27.7869 
41 52.7177 49.3579 -18.5189 0 1.16099 3.09434 -0.0422525 22146 31.1163 
49 41.3469 37.4444 -17.5353 0 2.50528 5.34971 -0.0276659 22746.5 29.1722 
57 1.53124 -0.426015 -1.47078 0 1.00696 -0.291666 0.00955509 1473.43 0.443329 
65 0.372018 -0.199851 -0.313779 0 0.205244 -0.130723 0.00851842 353.633 0.00390895 
73 0.366482 -0.196877 -0.309109 0 0.199916 -0.12733 -0.00641137 366.368 0.00199593 
81 0.355463 -0.190958 -0.299815 0 0.177277 -0.112911 -0.0037282 321.223 -0.00805769 
89 0.339041 -0.182137 -0.285964 0 0.132918 -0.0846587 -0.0189445 333.832 -0.025645 
97 0.358561 -0.192625 -0.302425 0 0.149469 -0.095202 0.00336556 339.545 -0.0195535 
105 0.415178 -0.223036 -0.350183 0 0.1305 -0.0831172 0.00115594 329.28 -0.0356378 
113 0.474109 -0.254695 -0.399887 0 0.132957 -0.0846824 -0.0120793 366.278 -0.0386125 
121 0.404743 -0.404743 0 0 0 0.0231706 -0.0061159 201.692 -0.088133 
129 0.552512 -0.552512 0 0 0 0.0322375 -0.00380909 320.388 -0.049015 
2 63.3263 63.3044 1.66497 0 -0.000802163 0.0304993 0.0384225 20576.5 1.47152 
10 63.2694 63.1815 -3.33422 0 0.0350738 0.664628 -0.151398 22800.9 9.30835 
18 61.7571 61.2219 -8.11288 0 0.191215 1.44296 -0.163918 23900.9 16.6263 
26 59.8003 58.4769 -12.511 0 0.463521 2.16652 0.0586525 23096.3 23.159 
34 56.8503 54.4799 -16.245 0 0.754951 2.53183 -0.0074318 22636.5 28.3392 
42 51.7755 48.2938 -18.6658 0 1.31314 3.39746 -0.00472672 22123 31.2731 
50 36.1414 31.7529 -17.2614 0 3.20359 5.8931 0.165709 22265.6 25.3905 
58 0.784207 -0.358996 -0.69721 0 0.496978 -0.255896 -0.02822 711.969 0.104544 
66 0.388574 -0.20874 -0.327745 0 0.220582 -0.140488 -0.00571383 382.046 0.00848357 
74 0.393728 -0.211514 -0.33209 0 0.19494 -0.12416 -0.00241508 381.906 -0.0107475 
82 0.341408 -0.183412 -0.287957 0 0.148276 -0.0944432 -0.00458039 295.006 -0.0203958 
90 0.371288 -0.199459 -0.313162 0 0.152911 -0.0973919 0.0153449 303.323 -0.023857 
98 0.404913 -0.217521 -0.341524 0 0.147504 -0.0939471 0.0154859 328.945 -0.0311286 
106 0.456755 -0.245371 -0.38525 0 0.142968 -0.0910583 -0.00349099 357.532 -0.0385683 
114 0.461441 -0.247891 -0.389202 0 0.13246 -0.0843664 -0.00391382 400.214 -0.0356318 
122 0.44247 -0.44247 0 0 0 0.0157968 -0.0172427 222.325 -0.089211 
130 0.57388 -0.57388 0 0 0 0.0136648 0.0263236 248.714 -0.0416541 
3 63.6958 63.6872 1.04602 0 0.000416812 -0.0253776 0.344148 21582.5 2.46772 
11 63.5245 63.4 -3.97437 0 0.0490315 0.782161 0.0901207 23110.8 10.3248 
19 62.1608 61.5384 -8.7744 0 0.222886 1.56319 -0.107028 23666.2 17.6693 
27 59.3008 57.8629 -12.9796 0 0.490962 2.1887 0.000880363 23221.6 23.8125 
35 56.3635 53.8515 -16.639 0 0.91679 2.96715 0.00711635 22916.5 28.9128 
43 51.3524 47.7139 -18.9856 0 1.515 3.80742 -0.0447012 23397.8 31.7455 
51 27.0845 20.8637 -17.2708 0 4.69028 5.66603 -0.0630703 19965 18.872 
59 0.518536 -0.278562 -0.437359 0 0.33405 -0.212763 0.0102627 572.75 0.0430497 
67 0.381855 -0.205136 -0.322075 0 0.187869 -0.119657 0.0142663 321.227 -0.012223 
75 0.354851 -0.19063 -0.299298 0 0.195578 -0.124569 -0.0223448 364.677 0.00316636 
83 0.380809 -0.20457 -0.321195 0 0.161739 -0.103012 -0.0168303 336.762 -0.024499 
91 0.332337 -0.178535 -0.280309 0 0.143603 -0.0914637 0.00905565 297.71 -0.0176068 
99 0.355202 -0.190816 -0.299596 0 0.132327 -0.0842807 0.0229091 316.034 -0.0255067 
107 0.41017 -0.220351 -0.345955 0 0.158076 -0.100684 -0.0163836 330.779 -0.022926 
115 0.467919 -0.25137 -0.394666 0 0.0949412 -0.0604698 -0.00524355 387.39 -0.0469584 
123 0.482394 -0.482394 0 0 0 0.0197063 0.021672 259.562 -0.0894795 
131 0.569051 -0.569051 0 0 -1.80829e-16 0.0157893 -0.00971741 292.163 -0.0321251 
4 63.5372 63.5358 0.415679 0 -0.00127476 0.194845 -0.0611048 22491 3.44685 
12 63.1457 62.9799 -4.57226 0 0.0649405 0.894512 -0.0306486 23919.7 11.2343 
20 61.6582 60.9521 -9.30497 0 0.25559 1.67424 0.0120752 23286.7 18.4497 
28 59.0521 57.4902 -13.4919 0 0.501458 2.13675 -0.00328894 22440.7 24.5412 
36 55.7895 53.1379 -16.9953 0 0.90833 2.84001 0.000880607 22222.6 29.3305 
44 50.6579 46.881 -19.1936 0 1.55797 3.8054 -0.0756212 22762.8 31.9327 
52 19.0089 12.038 -14.7115 0 4.87629 3.99013 -0.0693388 15566.9 12.6673 
60 0.457811 -0.245942 -0.38614 0 0.259261 -0.165129 0.00377686 447.916 0.0102204 
68 0.387891 -0.208383 -0.327164 0 0.208354 -0.132709 -0.0147234 368.666 -2.04217e-05 
76 0.335589 -0.180282 -0.283052 0 0.188877 -0.120299 0.0169862 316.948 0.00542703 
84 0.304347 -0.163498 -0.256701 0 0.137395 -0.0875094 0.0268146 293.965 -0.0147089 
92 0.400595 -0.215199 -0.337885 0 0.143575 -0.0914428 0.0216769 318.995 -0.0354934 
100 0.378916 -0.203561 -0.319594 0 0.118166 -0.0752642 -0.0256334 296.823 -0.0365149 
108 0.411462 -0.22104 -0.347048 0 0.150992 -0.0961687 -0.0267971 360.983 -0.0251924 
116 0.46943 -0.252182 -0.395941 0 0.116889 -0.0744491 0.0128712 362.22 -0.0394645 
124 0.487538 -0.487538 0 0 0 0.0373635 0.01037 233.672 -0.0825701 
132 0.526049 -0.526049 0 0 0 0.0143274 -0.0193578 258.027 -0.0212124 
5 63.474 63.4736 -0.210827 0 0.00103022 0.310169 -0.00322209 22889.1 4.42779 
13 63.1947 62.9805 -5.19914 0 0.0761391 0.922321 0.002372 23224.8 12.2112 
21 61.2568 60.4609 -9.84261 0 0.293185 1.80097 -0.0268851 23679.2 19.2437 
29 59.0063 57.3093 -14.0496 0 0.600774 2.4506 0.19204 22954.5 25.3797 
37 55.3638 52.5631 -17.3858 0 1.07725 3.2569 0.06206 22843.6 29.9017 
45 48.8267 45.0017 -18.9443 0 1.57486 3.74103 0.114243 22015.3 31.3716 
53 12.4332 5.87586 -10.9571 0 3.98983 2.13958 0.0688502 9925.61 7.46911 
61 0.508363 -0.273097 -0.428779 0 0.301448 -0.191998 0.0023818 467.922 0.0215144 
69 0.347136 -0.186481 -0.292793 0 0.199035 -0.126766 0.000476357 376.771 0.00867342 
77 0.307329 -0.165097 -0.259218 0 0.15697 -0.0999749 0.00324316 291.877 -0.0050623 
85 0.320506 -0.172179 -0.27033 0 0.131476 -0.0837395 0.0239942 258.537 -0.0225903 
93 0.36902 -0.198246 -0.311247 0 0.164844 -0.104996 -0.00639119 387.336 -0.0162684 
101 0.381495 -0.204941 -0.321772 0 0.132897 -0.0846437 0.0134543 337.089 -0.0301939 
109 0.454138 -0.243965 -0.383044 0 0.123314 -0.0785402 -0.0246564 306.799 -0.042367 
117 0.332412 -0.332412 0 0 0 0.0143044 -0.0200404 193.879 -0.0938296 
125 0.533984 -0.533984 0 0 0 -0.0133991 0.00569852 267.323 -0.0818233 
133 0.578711 -0.578711 0 0 0 -0.0310716 -0.00640962 228.377 -0.0140016 
6 63.6726 63.6671 -0.840693 0 0.00725 0.549054 -0.0277335 23106.4 5.42898 
14 63.3312 63.062 -5.83251 0 0.0877638 0.948915 -0.184004 23735.4 13.2046 
22 61.0853 60.1915 -10.4115 0 0.322715 1.8657 0.198733 23294.7 20.093 
30 58.4194 56.5992 -14.4691 0 0.625233 2.44574 -0.0143026 22970.6 25.94 
38 54.5665 51.6344 -17.6462 0 1.04426 3.05562 0.084307 22132.7 30.1401 
46 47.5424 43.6336 -18.8783 0 1.81528 4.1957 0.0293845 22362.3 31.2608 
54 7.88885 2.32141 -7.53956 0 3.08685 0.950433 -0.02818 6458.7 4.12505 
62 0.424726 -0.228166 -0.358235 0 0.249226 -0.158736 0.000496218 428.371 0.015803 
70 0.421208 -0.226276 -0.355267 0 0.214447 -0.136585 0.0202378 369.602 -0.00807253 
78 0.363103 -0.195067 -0.306256 0 0.164908 -0.105037 0.00157744 332.565 -0.0185315 
86 0.343921 -0.184758 -0.290079 0 0.151768 -0.096665 -0.00262468 287.917 -0.0180295 
94 0.360849 -0.19385 -0.304359 0 0.123984 -0.078967 0.000676941 252.411 -0.033435 
102 0.359863 -0.19332 -0.303527 0 0.128222 -0.0816662 0.00430775 278.812 -0.0267298 
110 0.460316 -0.247283 -0.388254 0 0.114613 -0.0729983 0.010579 362.545 -0.0454606 
118 0.337642 -0.337642 0 0 0 -0.00877126 0.0055659 174.581 -0.0898596 
126 0.56764 -0.56764 0 0 0 -0.00291783 -0.0129328 288.29 -0.0778246 
134 0.566096 -0.566096 0 0 0 0.00808824 -0.00939962 279.951 -0.00456546 
7 64.0882 64.0711 -1.47975 0 0.00954656 0.413353 -0.0657463 22767.7 6.45705 
15 62.8259 62.4986 -6.4044 0 0.123827 1.20839 -0.101201 23721.4 14.0608 
23 61.0533 60.0545 -10.9984 0 0.347418 1.897 0.0608787 23634.1 20.9777 
31 58.2337 56.2739 -14.9802 0 0.674836 2.53506 -0.0416322 23717.4 26.6694 
39 54.27 51.1778 -18.0572 0 1.13652 3.22113 0.0635178 22568.2 30.6973 
47 46.0898 42.1176 -18.7185 0 1.987 4.47087 -0.196563 22735.8 30.9617 
55 4.70274 0.493591 -4.67676 0 2.27471 0.240076 -0.0299174 4002.91 2.1197 
63 0.409299 -0.219875 -0.345225 0 0.207518 -0.132169 0.00970313 349.652 -0.00916743 
71 0.386615 -0.207696 -0.326089 0 0.22286 -0.141947 -0.00204539 405.302 0.0102192 
79 0.371343 -0.199489 -0.313209 0 0.15674 -0.0998304 -0.014068 311.194 -0.0259041 
87 0.3431 -0.184316 -0.289387 0 0.138897 -0.088466 0.00267723 297.938 -0.0244358 
95 0.37246 -0.200088 -0.314152 0 0.133029 -0.0847283 -0.0382437 265.36 -0.0315216 
103 0.365289 -0.196235 -0.308103 0 0.132977 -0.0846947 0.010404 310.946 -0.0254371 
111 0.419862 -0.225558 -0.354129 0 0.133952 -0.085319 -0.00308884 397.299 -0.030612 
119 0.405317 -0.405317 0 0 0 -0.00724925 0.0158131 242.706 -0.101333 
127 0.537465 -0.537465 0 0 0 0.0385184 -0.000300132 217.638 -0.0650183 
8 63.5947 63.5601 -2.09564 0 0.0143095 0.434004 -0.0474265 22679.6 7.3914 
16 62.969 62.5745 -7.03758 0 0.156734 1.3936 0.110964 23777.8 15.0523 
24 60.3766 59.2785 -11.4625 0 0.394984 2.04266 0.12124 22833.3 21.6339 
32 57.7166 55.625 -15.3969 0 0.721107 2.60517 -0.0763205 23061.9 27.2301 
40 53.7871 50.5435 -18.396 0 1.2355 3.39456 -0.216182 22834.8 31.1392 
48 44.1706 40.1849 -18.3363 0 2.19269 4.80539 0.0148029 22557.9 30.3488 
56 2.61928 -0.231291 -2.60905 0 1.52917 -0.13556 0.0280474 2619.35 0.993914 
64 0.445048 -0.239091 -0.375371 0 0.276455 -0.176087 -0.00834785 462.321 0.0274017 
72 0.344671 -0.18516 -0.290713 0 0.185699 -0.118274 -0.0107131 306.525 0.000358676 
80 0.295738 -0.15887 -0.249442 0 0.146919 -0.0935733 -0.00759203 281.758 -0.00714049 
88 0.359941 -0.193364 -0.303591 0 0.167266 -0.106535 -0.0439291 355.296 -0.0138191 
96 0.378504 -0.203334 -0.31925 0 0.159179 -0.101383 -0.00930159 356.656 -0.0203805 
104 0.404553 -0.217334 -0.341217 0 0.13023 -0.0829484 0.0129042 342.799 -0.0342861 
112 0.405594 -0.217888 -0.342099 0 0.101252 -0.0644886 0.0165553 320.537 -0.0379849 
120 0.43564 -0.43564 0 0 0 0.00422636 0.0242595 223.545 -0.101887 
128 0.521192 -0.521192 0 0 0 0.0318563 -0.00250332 275.91 -0.0546432 
