ITEM: TIMESTEP
22000
ITEM: NUMBER OF SURFS
134
ITEM: BOX BOUNDS oo ao pp
-10 10
0 10
-0.5 0.5
ITEM: SURFS id f_avg_pressure[1] f_avg_pressure[2] f_avg_pressure[3] f_avg_pressure[4] f_avg_shear[1] f_avg_shear[2] f_avg_shear[3] f_avg_heat_flux[*] f_avg_fdrag[*] 
1 64.185 64.143 2.32182 0 0.000721408 -0.0199297 0.000921905 21290.2 0.496965 
9 63.4525 63.3942 -2.71824 0 0.0371318 0.86598 -0.00201776 24605.3 8.35757 
17 62.4814 62.018 -7.59562 0 0.165307 1.34972 -0.000170472 23746.9 15.8784 
25 60.2633 59.0513 -12.0254 0 0.415656 2.04109 0.0535329 23621.4 22.4637 
33 57.2958 55.0656 -15.8298 0 0.786123 2.7346 -0.0270143 23420.3 27.8255 
41 52.6812 49.3238 -18.5061 0 1.19658 3.18921 0.0688958 22392 31.1172 
49 41.285 37.3883 -17.509 0 2.43758 5.20515 0.0212581 22691.9 29.0818 
57 1.4364 -0.399629 -1.37969 0 0.915704 -0.265235 0.0046668 1444.14 0.393828 
65 0.401159 -0.215506 -0.338357 0 0.224001 -0.14267 -0.00878071 389.293 0.00615795 
73 0.376572 -0.202298 -0.317619 0 0.183676 -0.116986 0.00337862 355.298 -0.012233 
81 0.359429 -0.193088 -0.30316 0 0.176087 -0.112153 -0.00827346 343.686 -0.0100132 
89 0.336658 -0.180857 -0.283953 0 0.151372 -0.0964125 -0.00308119 322.613 -0.0153627 
97 0.368003 -0.197698 -0.310389 0 0.140677 -0.0896021 -0.00724239 328.525 -0.0258352 
105 0.44049 -0.236633 -0.371532 0 0.144496 -0.0920315 0.00934449 358.701 -0.0354843 
113 0.459838 -0.247028 -0.38785 0 0.124982 -0.079603 -0.00411048 342.273 -0.0387104 
121 0.426708 -0.426708 0 0 0 0.0119479 0.00379802 212.585 -0.0929158 
129 0.554056 -0.554056 0 0 0 0.0210276 -0.00848347 263.769 -0.0491519 
2 63.98 63.9578 1.68216 0 -0.00137252 0.052185 -0.0128659 22135.8 1.4867 
10 63.3449 63.2569 -3.33819 0 0.0376738 0.713896 0.0105171 23068.7 9.31983 
18 62.1561 61.6175 -8.16529 0 0.200603 1.5138 0.0618092 24238.3 16.7359 
26 59.8784 58.5533 -12.5273 0 0.461705 2.15803 0.0141246 23316.9 23.1883 
34 56.9354 54.5614 -16.2693 0 0.804413 2.69771 -0.0568604 22867.5 28.4064 
42 52.067 48.5657 -18.7709 0 1.33746 3.46041 0.010138 22512.2 31.4598 
50 35.985 31.6154 -17.1867 0 3.16844 5.82843 -0.019965 22358.4 25.2651 
58 0.746717 -0.341834 -0.663879 0 0.486376 -0.250437 -0.00834615 727.974 0.109514 
66 0.39902 -0.214352 -0.336556 0 0.228231 -0.14536 0.001635 404.65 0.0099429 
74 0.377362 -0.202722 -0.318286 0 0.190691 -0.121455 -0.00442182 358.115 -0.00780104 
82 0.360347 -0.193586 -0.303931 0 0.163327 -0.10403 -0.0077589 326.836 -0.0175648 
90 0.389833 -0.209422 -0.328805 0 0.156173 -0.0994694 -0.000711855 326.492 -0.0272914 
98 0.369356 -0.19842 -0.311534 0 0.144535 -0.0920561 0.00121563 323.935 -0.0239565 
106 0.414839 -0.222854 -0.349896 0 0.130787 -0.0833003 0.0011461 333.036 -0.0346752 
114 0.453448 -0.243597 -0.38246 0 0.110584 -0.0704334 0.00997858 375.098 -0.041059 
122 0.449327 -0.449327 0 0 0 0.0230411 -0.0176562 222.814 -0.0905936 
130 0.575238 -0.575238 0 0 0 0.00869684 0.0179306 254.778 -0.0417526 
3 64.136 64.1273 1.05325 0 -0.00213609 0.130056 0.079025 22902.4 2.48467 
11 63.4481 63.3238 -3.96959 0 0.0540687 0.862516 0.0198352 22996.7 10.3132 
19 62.1399 61.5177 -8.77144 0 0.240141 1.6842 -0.0654873 23798.7 17.6683 
27 59.4768 58.0346 -13.0181 0 0.495903 2.21073 0.0327208 23689 23.8846 
35 56.3808 53.8681 -16.6441 0 0.888414 2.87532 0.00755979 23081.7 28.9066 
43 51.4735 47.8264 -19.0304 0 1.51977 3.81943 -0.0290433 23536.2 31.8211 
51 27.0131 20.8087 -17.2252 0 4.66046 5.63001 -0.0289655 20153.6 18.8094 
59 0.510695 -0.27435 -0.430746 0 0.321539 -0.204794 0.00107664 510.521 0.0366107 
67 0.38932 -0.209146 -0.328372 0 0.210129 -0.133835 -0.00293402 382.15 0.000696039 
75 0.357123 -0.191851 -0.301214 0 0.180656 -0.115064 -0.0050761 343.875 -0.0071641 
83 0.370845 -0.199217 -0.312791 0 0.165574 -0.105454 0.00203172 340.119 -0.0192439 
91 0.329152 -0.176823 -0.277623 0 0.1422 -0.0905698 -0.00319335 284.942 -0.0174517 
99 0.357533 -0.192069 -0.301562 0 0.13136 -0.0836649 0.00277107 300.625 -0.0264745 
107 0.405664 -0.21793 -0.342154 0 0.135449 -0.086272 -0.00460166 320.937 -0.0303651 
115 0.456217 -0.245084 -0.384796 0 0.113831 -0.0725011 -0.00396961 369.152 -0.0394007 
123 0.482647 -0.482647 0 0 0 0.015485 0.0030651 242.005 -0.0895264 
131 0.599512 -0.599512 0 0 -1.92152e-16 0.00883787 -0.00417901 277.082 -0.0338447 
4 63.9817 63.9804 0.418587 0 -0.00205524 0.31414 -0.0253079 23458.9 3.47092 
12 63.1938 63.0279 -4.57575 0 0.0720377 0.992272 -0.052254 24058.8 11.2441 
20 61.8353 61.1271 -9.3317 0 0.253415 1.65999 0.0271139 23741.3 18.5018 
28 59.1405 57.5763 -13.5121 0 0.511672 2.18028 -0.0139113 22904.3 24.582 
36 55.6542 53.009 -16.954 0 0.917926 2.87002 -0.0212002 22460.5 29.2658 
44 50.3408 46.5876 -19.0735 0 1.58194 3.86393 -0.094243 22844.3 31.755 
52 19.0757 12.0802 -14.7631 0 4.95292 4.05284 -0.0693973 15303 12.7563 
60 0.496241 -0.266587 -0.418553 0 0.300319 -0.191281 -0.0208774 492.308 0.0258852 
68 0.387689 -0.208275 -0.326993 0 0.213902 -0.136242 0.00385661 370.726 0.00393546 
76 0.354583 -0.190486 -0.299073 0 0.174919 -0.111409 0.00218829 323.084 -0.00982975 
84 0.35656 -0.191548 -0.300741 0 0.159836 -0.101802 -0.00387473 318.621 -0.0178694 
92 0.360652 -0.193741 -0.304194 0 0.148738 -0.0947313 0.00172261 321.801 -0.0223013 
100 0.368948 -0.198206 -0.311187 0 0.133449 -0.0849984 -0.00794939 322.523 -0.0276901 
108 0.437053 -0.234787 -0.368633 0 0.136928 -0.0872115 -0.0112459 356.981 -0.0351945 
116 0.482434 -0.259168 -0.406909 0 0.116365 -0.0741149 0.00451079 363.526 -0.0416553 
124 0.497071 -0.497071 0 0 0 0.016283 0.0137126 238.266 -0.0841846 
132 0.553453 -0.553453 0 0 0 0.00331713 -0.00146627 253.572 -0.0223175 
5 63.9237 63.9234 -0.212321 0 0.00141472 0.42593 -0.0430956 23735.9 4.45919 
13 63.2111 62.9968 -5.20049 0 0.0807149 0.97775 -0.0346959 23231 12.2152 
21 61.4885 60.6895 -9.87983 0 0.291967 1.79349 -0.00747946 23962.6 19.3157 
29 59.039 57.3411 -14.0574 0 0.570802 2.32834 0.0285032 23249.7 25.3805 
37 55.283 52.4864 -17.3604 0 1.03967 3.14328 0.00761693 23286.9 29.838 
45 48.9196 45.0874 -18.9804 0 1.59013 3.77731 0.0184911 22139.9 31.4396 
53 12.3497 5.83639 -10.8835 0 4.04376 2.16851 -0.0202776 10002.9 7.48006 
61 0.479653 -0.257674 -0.404563 0 0.291633 -0.185747 -0.010135 489.633 0.0257702 
69 0.371551 -0.199597 -0.313387 0 0.199421 -0.127012 -0.000794269 364.203 -0.000121392 
77 0.357465 -0.19203 -0.301505 0 0.174758 -0.111304 0.000654877 332.277 -0.0107594 
85 0.338182 -0.181675 -0.285239 0 0.154359 -0.0983146 0.00484551 297.936 -0.0151599 
93 0.348517 -0.187231 -0.293954 0 0.142933 -0.09104 -0.003256 324.999 -0.0215753 
101 0.386507 -0.207634 -0.326 0 0.136425 -0.0868909 0.00414196 337.43 -0.0298437 
109 0.430469 -0.23125 -0.36308 0 0.129205 -0.0822919 0.00366342 339.549 -0.0358335 
117 0.311885 -0.311885 0 0 0 0.00530487 -0.0089539 207.365 -0.0880353 
125 0.524651 -0.524651 0 0 0 0.00233143 -0.00379773 267.241 -0.0803931 
133 0.584621 -0.584621 0 0 0 0.00259536 -0.00585987 273.965 -0.0141446 
6 64.0581 64.0526 -0.845783 0 0.00623573 0.472243 0.00166043 23707.5 5.46176 
14 63.0694 62.8014 -5.80841 0 0.0959651 1.03759 0.0371166 23638.6 13.1518 
22 61.1109 60.2167 -10.4158 0 0.32328 1.86897 -0.00656273 23604.6 20.1015 
30 58.5892 56.7637 -14.5112 0 0.630661 2.46697 -0.0267749 23408.4 26.017 
38 54.4099 51.4862 -17.5955 0 1.02127 2.98833 0.0610315 22445.2 30.0421 
46 47.846 43.9123 -18.9988 0 1.79898 4.15801 -0.0146282 22924.1 31.4412 
54 7.85914 2.31267 -7.51117 0 3.21643 0.990331 0.0193548 6675.95 4.21722 
62 0.44781 -0.240567 -0.377706 0 0.259323 -0.165167 0.00861831 435.021 0.014074 
70 0.393683 -0.21149 -0.332051 0 0.207127 -0.131923 0.00966882 357.408 -0.00297734 
78 0.364812 -0.195985 -0.307697 0 0.172113 -0.109626 0.00556436 336.407 -0.0146684 
86 0.368037 -0.197714 -0.31042 0 0.157139 -0.100086 0.00113989 328.283 -0.0221747 
94 0.359402 -0.193073 -0.303138 0 0.139609 -0.088919 0.0021922 292.378 -0.0255852 
102 0.402765 -0.216367 -0.339713 0 0.14825 -0.094422 0.0117292 351.704 -0.0279696 
110 0.427781 -0.229806 -0.360813 0 0.109326 -0.0696307 -0.00204761 324.554 -0.0412835 
118 0.346723 -0.346723 0 0 0 0.00190951 0.00748423 213.574 -0.0922765 
126 0.546415 -0.546415 0 0 0 0.00115721 -0.00619917 261.068 -0.0749146 
134 0.555894 -0.555894 0 0 0 0.0183758 0.00997469 252.074 -0.00448318 
7 63.9813 63.9643 -1.47728 0 0.0122247 0.529314 -0.0330418 23277.9 6.44655 
15 62.679 62.3525 -6.38943 0 0.124928 1.21914 0.0182394 23697.8 14.0282 
23 60.9881 59.9904 -10.9867 0 0.355782 1.94267 0.0285991 24035.5 20.9583 
31 58.1948 56.2364 -14.9702 0 0.692002 2.59954 -0.0398345 23961.3 26.6599 
39 54.2334 51.1434 -18.045 0 1.10443 3.13019 -0.0508433 22857.2 30.6583 
47 46.2387 42.2536 -18.7789 0 1.97939 4.45375 -0.0402193 22998.9 31.0519 
55 4.57567 0.480254 -4.55039 0 2.23557 0.235944 -0.00179749 3940.84 2.07952 
63 0.430354 -0.231186 -0.362984 0 0.243071 -0.154813 0.00969444 428.144 0.0088173 
71 0.375457 -0.201702 -0.316677 0 0.206313 -0.131407 0.00759936 369.585 0.00310721 
79 0.351485 -0.18882 -0.29646 0 0.157747 -0.100472 -0.00421192 316.647 -0.0188294 
87 0.359294 -0.193016 -0.303046 0 0.169289 -0.107823 0.00858393 353.763 -0.0127651 
95 0.360475 -0.193649 -0.304043 0 0.135065 -0.0860249 -0.0180981 294.521 -0.0275381 
103 0.385753 -0.207229 -0.325364 0 0.128677 -0.0819561 -0.00775614 317.331 -0.0315868 
111 0.421523 -0.22645 -0.35553 0 0.122962 -0.0783189 0.00312724 334.18 -0.0345827 
119 0.392464 -0.392464 0 0 0 0.00691587 -0.000203936 222.575 -0.0981198 
127 0.556202 -0.556202 0 0 0 0.0111986 0.00316258 257.636 -0.0672849 
8 63.9815 63.9467 -2.10838 0 0.0220076 0.667484 -0.0183314 23311.9 7.43724 
16 62.6995 62.3067 -7.00747 0 0.139257 1.2382 0.0318552 23721.8 14.9838 
24 60.4793 59.3794 -11.482 0 0.380086 1.96562 0.0572372 23404.3 21.665 
32 57.5328 55.4478 -15.3479 0 0.724238 2.61648 -0.0170498 23179.5 27.1459 
40 53.5931 50.3612 -18.3296 0 1.23071 3.38141 -0.0347844 23214.4 31.0267 
48 44.3119 40.3134 -18.3949 0 2.14267 4.69578 -0.00752567 22936.7 30.405 
56 2.57575 -0.227448 -2.56569 0 1.46669 -0.130021 0.00581104 2413.98 0.949011 
64 0.427475 -0.22965 -0.360549 0 0.251349 -0.160096 -0.00134814 449.944 0.0159133 
72 0.357016 -0.191791 -0.301125 0 0.188697 -0.120184 -0.00437869 351.952 -0.00205901 
80 0.328427 -0.176431 -0.277013 0 0.172388 -0.109794 0.003898 327.449 -0.00241568 
88 0.337873 -0.181509 -0.284979 0 0.14859 -0.0946402 -0.00765835 334.077 -0.017431 
96 0.380399 -0.204352 -0.320849 0 0.14867 -0.0946894 -0.0101591 350.111 -0.0257015 
104 0.39667 -0.213099 -0.334568 0 0.134336 -0.0855635 0.00978903 340.758 -0.0310031 
112 0.412983 -0.221857 -0.348331 0 0.0922228 -0.0587379 0.00677712 304.821 -0.0422179 
120 0.406937 -0.406937 0 0 0 0.0113041 0.00890756 208.42 -0.0951742 
128 0.561847 -0.561847 0 0 0 0.0166651 -0.00606647 287.587 -0.0589056 
