ITEM: TIMESTEP
21000
ITEM: NUMBER OF SURFS
134
ITEM: BOX BOUNDS oo ao pp
-10 10
0 10
-0.5 0.5
ITEM: SURFS id f_avg_pressure[1] f_avg_pressure[2] f_avg_pressure[3] f_avg_pressure[4] f_avg_shear[1] f_avg_shear[2] f_avg_shear[3] f_avg_heat_flux[*] f_avg_fdrag[*] 
1 64.282 64.2399 2.32533 0 0.00178171 -0.0492217 0.00735425 21450.2 0.497725 
9 63.4691 63.4108 -2.71895 0 0.038429 0.896232 0.0178373 24657.5 8.35993 
17 62.45 61.9868 -7.59179 0 0.164998 1.34721 0.0141818 23653.8 15.8704 
25 60.2768 59.0645 -12.0281 0 0.422571 2.07505 0.0528884 23622.7 22.4713 
33 57.252 55.0235 -15.8177 0 0.78573 2.73324 -0.0405468 23418.3 27.8043 
41 52.6434 49.2884 -18.4928 0 1.19181 3.17649 0.0971664 22403.5 31.0925 
49 41.2659 37.371 -17.5009 0 2.44885 5.22922 0.0140913 22623.1 29.0774 
57 1.44476 -0.401955 -1.38772 0 0.918061 -0.265918 0.00426034 1445.07 0.393851 
65 0.402131 -0.216028 -0.339177 0 0.223269 -0.142204 -0.00600207 389.376 0.00524838 
73 0.37706 -0.20256 -0.318031 0 0.185381 -0.118072 -0.000376394 352.684 -0.0112851 
81 0.366501 -0.196887 -0.309125 0 0.180419 -0.114912 -0.00899875 350.287 -0.00969925 
89 0.336626 -0.18084 -0.283926 0 0.148175 -0.0943765 -0.00703629 310.132 -0.0170192 
97 0.371358 -0.199501 -0.31322 0 0.145064 -0.0923963 -0.0100168 336.6 -0.0246643 
105 0.435151 -0.233765 -0.367029 0 0.141216 -0.0899422 0.007319 351.806 -0.035643 
113 0.449313 -0.241374 -0.378973 0 0.123387 -0.0785871 -0.00739422 335.559 -0.037423 
121 0.423321 -0.423321 0 0 0 0.0156752 0.00191102 211.957 -0.0921784 
129 0.545973 -0.545973 0 0 0 0.0166337 -0.00923588 264.956 -0.0484349 
2 63.9746 63.9525 1.68202 0 -0.00101416 0.0385597 -0.0066605 22266.2 1.48658 
10 63.2928 63.2048 -3.33545 0 0.0395838 0.750091 -0.00559178 23071.6 9.31245 
18 62.1486 61.61 -8.16429 0 0.194193 1.46543 0.0147637 24123.2 16.7322 
26 59.9145 58.5886 -12.5349 0 0.455421 2.12866 0.0149311 23295.1 23.1997 
34 56.9322 54.5584 -16.2684 0 0.796385 2.67079 -0.0590205 22911.9 28.4007 
42 52.0804 48.5782 -18.7757 0 1.33635 3.45752 -0.0112878 22559.5 31.467 
50 36.03 31.655 -17.2082 0 3.17602 5.84238 -0.0281081 22382.5 25.2994 
58 0.741449 -0.339422 -0.659195 0 0.480598 -0.247462 -0.00465534 713.113 0.106964 
66 0.401049 -0.215442 -0.338267 0 0.231264 -0.147291 0.000226883 404.139 0.0113349 
74 0.377873 -0.202996 -0.318717 0 0.19151 -0.121976 -0.00468314 358.703 -0.00744796 
82 0.36669 -0.196994 -0.309282 0 0.164904 -0.105034 -0.00957499 329.363 -0.0186279 
90 0.392849 -0.211042 -0.331348 0 0.158721 -0.101092 0.00135647 334.565 -0.0268159 
98 0.375642 -0.201797 -0.316836 0 0.143808 -0.0915932 0.00406114 319.66 -0.0257809 
106 0.413336 -0.222046 -0.348629 0 0.131405 -0.0836938 0.000899941 324.272 -0.0341384 
114 0.450701 -0.242121 -0.380143 0 0.111259 -0.070863 0.0123465 371.782 -0.0403952 
122 0.454622 -0.454622 0 0 0 0.0238656 -0.0154167 227.347 -0.0916611 
130 0.573117 -0.573117 0 0 0 0.0039561 0.0198833 252.777 -0.0415987 
3 64.1665 64.1578 1.05375 0 -0.00251009 0.152827 0.104179 23017.7 2.48584 
11 63.4341 63.3098 -3.96872 0 0.0558068 0.890242 0.0553371 22932 10.3112 
19 62.1221 61.5001 -8.76893 0 0.23889 1.67544 -0.0963014 23754 17.6629 
27 59.4779 58.0357 -13.0184 0 0.492988 2.19773 0.0344386 23655.4 23.8839 
35 56.399 53.8855 -16.6495 0 0.893231 2.89091 0.00181714 23052.1 28.9183 
43 51.4399 47.7952 -19.018 0 1.52765 3.83921 -0.0371238 23503.8 31.806 
51 27.0354 20.8259 -17.2394 0 4.65725 5.62612 -0.0592041 20124.5 18.8197 
59 0.514438 -0.27636 -0.433903 0 0.326599 -0.208017 0.000984365 521.216 0.0389768 
67 0.386687 -0.207731 -0.326151 0 0.204781 -0.130429 -0.00572022 377.147 -0.0020884 
75 0.359011 -0.192865 -0.302807 0 0.18495 -0.117799 -0.00876088 342.281 -0.00506537 
83 0.370903 -0.199249 -0.312841 0 0.167737 -0.106832 0.00520243 339.782 -0.0180245 
91 0.326916 -0.175622 -0.275737 0 0.141472 -0.0901066 -0.00321298 285.546 -0.0172129 
99 0.361848 -0.194387 -0.305201 0 0.133754 -0.08519 5.31413e-05 303.727 -0.0264411 
107 0.396968 -0.213259 -0.33482 0 0.134606 -0.0857355 -0.00213396 312.85 -0.0289554 
115 0.469946 -0.252459 -0.396375 0 0.112189 -0.0714554 -0.00433379 380.19 -0.0421075 
123 0.481644 -0.481644 0 0 0 0.0167551 0.00194848 239.093 -0.0893404 
131 0.5966 -0.5966 0 0 -1.9126e-16 0.00720665 -0.00627996 275.881 -0.0336803 
4 64.027 64.0257 0.418884 0 -0.00193334 0.295508 -0.0399869 23621.7 3.47339 
12 63.1344 62.9687 -4.57145 0 0.0720684 0.992695 -0.0472933 23946.9 11.2335 
20 61.84 61.1317 -9.3324 0 0.254657 1.66813 0.050517 23679.4 18.5036 
28 59.1716 57.6065 -13.5192 0 0.509868 2.17259 -0.00900654 22929.6 24.594 
36 55.6971 53.0498 -16.9671 0 0.916285 2.86489 -0.0264283 22522.9 29.287 
44 50.2796 46.5309 -19.0503 0 1.57843 3.85536 -0.0908532 22799.4 31.7153 
52 19.0391 12.057 -14.7348 0 4.94676 4.04779 -0.0824381 15312.3 12.7343 
60 0.495215 -0.266036 -0.417688 0 0.30134 -0.191931 -0.0219728 495.047 0.0270913 
68 0.393848 -0.211584 -0.332188 0 0.216118 -0.137654 0.0035849 379.175 0.00317126 
76 0.348532 -0.187235 -0.293969 0 0.171153 -0.109011 0.00282375 316.094 -0.0101547 
84 0.351922 -0.189056 -0.296829 0 0.160441 -0.102188 -0.00558999 314.37 -0.016124 
92 0.362064 -0.1945 -0.305385 0 0.148253 -0.0944226 0.00363328 326.144 -0.0229176 
100 0.369108 -0.198292 -0.311322 0 0.133251 -0.084872 -0.00789058 325.278 -0.0278117 
108 0.435925 -0.234181 -0.367681 0 0.131473 -0.083737 -0.0144691 350.953 -0.0369386 
116 0.481055 -0.258427 -0.405745 0 0.11161 -0.0710865 -0.000102369 362.843 -0.042826 
124 0.492781 -0.492781 0 0 0 0.0240032 0.00963693 237.011 -0.083458 
132 0.555645 -0.555645 0 0 0 0.00154834 -0.00292382 256.257 -0.0224059 
5 63.9598 63.9594 -0.212441 0 0.00145387 0.437716 -0.0567793 23851.2 4.46171 
13 63.2053 62.9911 -5.20002 0 0.080726 0.977885 -0.0446283 23109.9 12.2141 
21 61.5033 60.7041 -9.8822 0 0.29203 1.79388 0.00359254 23928.9 19.3204 
29 59.0673 57.3685 -14.0641 0 0.571474 2.33108 0.022752 23263.3 25.3929 
37 55.3332 52.5341 -17.3762 0 1.04664 3.16433 0.0480744 23305.8 29.8685 
45 48.9116 45.08 -18.9773 0 1.58975 3.77642 0.0300882 22133.8 31.4344 
53 12.3191 5.82193 -10.8565 0 4.03123 2.16178 -0.0122175 9989.81 7.45962 
61 0.483986 -0.260001 -0.408218 0 0.29377 -0.187107 -0.0118124 484.314 0.0256248 
69 0.368536 -0.197977 -0.310844 0 0.195534 -0.124536 -0.00330583 362.856 -0.00168832 
77 0.35703 -0.191796 -0.301139 0 0.174451 -0.111108 0.000458496 326.74 -0.0108056 
85 0.337465 -0.18129 -0.284635 0 0.154908 -0.0986643 0.00769304 300.529 -0.0146416 
93 0.346894 -0.186359 -0.292584 0 0.144007 -0.0917239 -0.00239043 330.893 -0.0206276 
101 0.382564 -0.205516 -0.322674 0 0.136365 -0.0868528 0.00302694 322.567 -0.028981 
109 0.434352 -0.233336 -0.366355 0 0.12978 -0.0826587 0.00129199 347.13 -0.0363638 
117 0.308314 -0.308314 0 0 0 0.00386538 -0.00748617 211.503 -0.0870273 
125 0.5249 -0.5249 0 0 0 0.00416106 0.000382676 266.738 -0.0804313 
133 0.586274 -0.586274 0 0 0 0.0010653 -0.00506061 276.913 -0.0141846 
6 64.0704 64.0649 -0.845945 0 0.00622681 0.471567 0.0163069 23847.1 5.4628 
14 63.0173 62.7494 -5.8036 0 0.0948042 1.02504 0.0223739 23570.1 13.1407 
22 61.0657 60.1722 -10.4081 0 0.321885 1.86091 0.00527921 23572.9 20.0863 
30 58.5689 56.7441 -14.5062 0 0.625443 2.44656 -0.041986 23363.9 26.0058 
38 54.4068 51.4833 -17.5946 0 1.01608 2.97314 0.0824978 22408 30.0375 
46 47.807 43.8765 -18.9833 0 1.79989 4.16012 -0.00986794 22902.8 31.4172 
54 7.87461 2.31722 -7.52595 0 3.2268 0.993525 0.0177237 6684.89 4.2286 
62 0.455379 -0.244633 -0.38409 0 0.264054 -0.16818 0.00752933 443.074 0.0145728 
70 0.398603 -0.214133 -0.336202 0 0.209489 -0.133427 0.0107001 355.663 -0.00316922 
78 0.36366 -0.195367 -0.306726 0 0.172427 -0.109826 0.00588036 337.671 -0.0140952 
86 0.36593 -0.196582 -0.308643 0 0.154954 -0.0986939 0.00181986 318.62 -0.0227505 
94 0.357149 -0.191862 -0.301238 0 0.136175 -0.0867316 0.000357003 287.917 -0.0266497 
102 0.400812 -0.215318 -0.338066 0 0.147596 -0.0940056 0.015344 350.59 -0.0278074 
110 0.417511 -0.224289 -0.352151 0 0.104693 -0.0666801 -0.00607217 316.333 -0.0409804 
118 0.350509 -0.350509 0 0 0 -0.00245738 0.00645773 216.339 -0.0932841 
126 0.547064 -0.547064 0 0 0 0.00404413 -0.00388739 259.001 -0.0750035 
134 0.546836 -0.546836 0 0 0 0.0172591 0.00781172 245.641 -0.00441014 
7 63.9735 63.9565 -1.4771 0 0.0123665 0.535454 -0.036919 23424.1 6.44578 
15 62.6798 62.3533 -6.38951 0 0.124173 1.21177 -0.00404275 23598.3 14.0282 
23 60.9766 59.979 -10.9846 0 0.355656 1.94198 0.0187941 23951.7 20.9543 
31 58.2415 56.2815 -14.9822 0 0.693126 2.60377 -0.062627 23970.8 26.6816 
39 54.2236 51.1341 -18.0418 0 1.09814 3.11235 -0.0563244 22824.8 30.6492 
47 46.2195 42.2361 -18.7711 0 1.97887 4.45258 -0.0136886 22960.8 31.0392 
55 4.57822 0.480522 -4.55294 0 2.22992 0.235349 -0.00781491 3932.31 2.0754 
63 0.424519 -0.228052 -0.358063 0 0.236148 -0.150404 0.0135256 420.245 0.0060061 
71 0.3753 -0.201617 -0.316544 0 0.209228 -0.133264 0.00488327 374.983 0.00512906 
79 0.343158 -0.184347 -0.289437 0 0.154839 -0.0986194 -0.00403798 307.136 -0.0178811 
87 0.359497 -0.193125 -0.303218 0 0.169205 -0.107769 0.00762628 361.158 -0.0128694 
95 0.357774 -0.192198 -0.301765 0 0.136583 -0.0869915 -0.0195427 288.015 -0.0261427 
103 0.392763 -0.210994 -0.331276 0 0.13114 -0.083525 -0.00765407 322.947 -0.0321104 
111 0.409123 -0.219789 -0.345072 0 0.117321 -0.0747261 7.09882e-05 326.782 -0.0342417 
119 0.388592 -0.388592 0 0 0 0.00613984 0.00313486 220.176 -0.0971516 
127 0.557372 -0.557372 0 0 0 0.0126443 -0.00194802 254.597 -0.0674265 
8 63.9127 63.878 -2.10612 0 0.0227704 0.690619 0.00655649 23369.7 7.42933 
16 62.722 62.329 -7.00997 0 0.137452 1.22215 0.0157687 23685 14.9887 
24 60.5492 59.448 -11.4953 0 0.378674 1.95832 0.0532561 23416.9 21.6894 
32 57.5547 55.469 -15.3537 0 0.727087 2.62677 -0.0162874 23179 27.1575 
40 53.5996 50.3673 -18.3319 0 1.22519 3.36623 -0.0603088 23231.4 31.027 
48 44.2703 40.2756 -18.3776 0 2.13599 4.68113 -0.000514332 22858.8 30.3731 
56 2.57714 -0.22757 -2.56707 0 1.4772 -0.130953 0.00265675 2417.12 0.956966 
64 0.43125 -0.231678 -0.363733 0 0.254165 -0.16189 0.000366461 445.44 0.0164915 
72 0.358359 -0.192513 -0.302258 0 0.189971 -0.120995 -0.00113107 353.82 -0.00169141 
80 0.322658 -0.173332 -0.272148 0 0.170799 -0.108782 0.00024043 322.511 -0.00151321 
88 0.338941 -0.182083 -0.28588 0 0.150316 -0.0957396 -0.00497304 339.195 -0.0168207 
96 0.384659 -0.206641 -0.324442 0 0.149579 -0.0952688 -0.00413483 352.61 -0.0263378 
104 0.398592 -0.214132 -0.33619 0 0.138033 -0.0879182 0.0126505 342.478 -0.0299544 
112 0.411473 -0.221045 -0.347057 0 0.0923729 -0.0588336 0.00791106 303.176 -0.0419048 
120 0.411612 -0.411612 0 0 0 0.0134832 0.00811659 211.978 -0.0962676 
128 0.565287 -0.565287 0 0 0 0.0184614 -0.0125279 286.666 -0.0592663 
