ITEM: TIMESTEP
20000
ITEM: NUMBER OF SURFS
134
ITEM: BOX BOUNDS oo ao pp
-10 10
0 10
-0.5 0.5
ITEM: SURFS id f_avg_pressure[1] f_avg_pressure[2] f_avg_pressure[3] f_avg_pressure[4] f_avg_shear[1] f_avg_shear[2] f_avg_shear[3] f_avg_heat_flux[*] f_avg_fdrag[*] 
1 64.4174 64.3753 2.33023 0 0.00171512 -0.0473822 0.0327966 21393.4 0.498773 
9 63.5058 63.4475 -2.72052 0 0.0393137 0.916866 0.0116363 24593.8 8.36488 
17 62.4439 61.9808 -7.59105 0 0.165031 1.34747 0.0146866 23656.5 15.8688 
25 60.2666 59.0545 -12.0261 0 0.428487 2.1041 0.0338943 23618 22.4698 
33 57.2023 54.9758 -15.804 0 0.784966 2.73058 -0.0299685 23366.7 27.7801 
41 52.6358 49.2813 -18.4902 0 1.18049 3.14632 0.0940007 22372.9 31.0811 
49 41.2784 37.3824 -17.5062 0 2.45007 5.23183 -0.00127795 22619.8 29.0866 
57 1.44945 -0.403261 -1.39223 0 0.92112 -0.266804 -0.00285499 1447.98 0.39519 
65 0.40349 -0.216758 -0.340323 0 0.225346 -0.143527 -0.000760481 393.905 0.00622512 
73 0.376009 -0.201995 -0.317144 0 0.186752 -0.118946 -0.000557389 349.089 -0.0100134 
81 0.363089 -0.195054 -0.306247 0 0.177818 -0.113255 -0.0113186 342.91 -0.010152 
89 0.340081 -0.182696 -0.286841 0 0.147832 -0.094158 -0.00732783 310.121 -0.0181651 
97 0.372055 -0.199875 -0.313807 0 0.146984 -0.0936193 -0.00850712 345.77 -0.0239638 
105 0.434068 -0.233183 -0.366116 0 0.139916 -0.0891141 0.00390704 344.982 -0.0359198 
113 0.442071 -0.237484 -0.372865 0 0.122349 -0.0779259 -0.011948 332.93 -0.0365183 
121 0.414151 -0.414151 0 0 0 0.0179388 0.000887044 207.803 -0.0901815 
129 0.540065 -0.540065 0 0 0 0.0228522 -0.00522596 265.447 -0.0479108 
2 64.0329 64.0108 1.68355 0 -0.0014378 0.054667 -0.00470746 22199.5 1.48793 
10 63.2528 63.1649 -3.33334 0 0.0390605 0.740174 -0.00688775 22999.1 9.3065 
18 62.1254 61.5871 -8.16126 0 0.192681 1.45402 -0.0295695 24081.4 16.7256 
26 59.9786 58.6513 -12.5483 0 0.457921 2.14034 0.0262327 23267.6 23.2253 
34 56.923 54.5495 -16.2658 0 0.798276 2.67713 -0.0464259 22869.7 28.3971 
42 52.0414 48.5419 -18.7617 0 1.34141 3.47062 -0.0360069 22488.3 31.4473 
50 36.0591 31.6806 -17.2221 0 3.1762 5.84272 -0.0170246 22372.2 25.3181 
58 0.755976 -0.346073 -0.672112 0 0.489546 -0.252069 -0.00827546 727.304 0.108704 
66 0.397574 -0.213575 -0.335337 0 0.229176 -0.145962 -0.00113746 399.168 0.0111762 
74 0.378658 -0.203418 -0.319379 0 0.191715 -0.122107 -0.00610319 357.694 -0.00758834 
82 0.366363 -0.196818 -0.309005 0 0.166834 -0.106263 -0.00919354 334.029 -0.0174057 
90 0.393806 -0.211556 -0.332156 0 0.162891 -0.103748 0.00536207 337.813 -0.0249422 
98 0.376019 -0.201999 -0.317153 0 0.146024 -0.0930045 0.00355593 322.553 -0.0248857 
106 0.413901 -0.22235 -0.349105 0 0.131315 -0.0836361 0.00352751 318.914 -0.0342868 
114 0.455912 -0.24492 -0.384538 0 0.110236 -0.0702118 0.0124112 368.939 -0.0415749 
122 0.457603 -0.457603 0 0 0 0.0229122 -0.0162208 228.703 -0.0922621 
130 0.571654 -0.571654 0 0 0 0.00726902 0.0211333 253.328 -0.0414925 
3 64.2128 64.2042 1.05451 0 -0.00260515 0.158615 0.124127 22959.8 2.48763 
11 63.4093 63.285 -3.96716 0 0.0530898 0.8469 0.0500436 22875.5 10.3067 
19 62.1303 61.5082 -8.77009 0 0.237638 1.66665 -0.0956826 23777.1 17.6649 
27 59.5615 58.1173 -13.0367 0 0.491451 2.19088 0.0401587 23682.4 23.9165 
35 56.3566 53.8449 -16.637 0 0.892952 2.89 0.0230042 23038 28.8968 
43 51.4412 47.7964 -19.0185 0 1.51742 3.81352 -0.0351108 23473.3 31.8002 
51 27.0438 20.8323 -17.2448 0 4.65228 5.62012 -0.0719186 20097.3 18.8208 
59 0.508272 -0.273048 -0.428702 0 0.31998 -0.203801 0.000886894 519.89 0.0364114 
67 0.38298 -0.20574 -0.323024 0 0.198244 -0.126265 -0.00445751 368.638 -0.00530649 
75 0.364491 -0.195809 -0.307429 0 0.189972 -0.120998 -0.0104548 355.446 -0.00373506 
83 0.371058 -0.199332 -0.312971 0 0.162449 -0.103464 0.00637409 334.403 -0.0210967 
91 0.329124 -0.176808 -0.277599 0 0.143798 -0.0915879 -0.00533585 288.478 -0.0166384 
99 0.364246 -0.195675 -0.307224 0 0.134491 -0.0856589 0.00242102 305.722 -0.0266818 
107 0.399719 -0.214736 -0.33714 0 0.134871 -0.0859043 -0.00485847 314.139 -0.0294019 
115 0.480182 -0.257958 -0.405009 0 0.111759 -0.0711811 -0.00312598 380.434 -0.0438876 
123 0.477967 -0.477967 0 0 0 0.017818 0.00394542 236.58 -0.0886584 
131 0.595662 -0.595662 0 0 -1.90618e-16 0.00608334 -0.00580285 278.24 -0.0336273 
4 64.0576 64.0562 0.419084 0 -0.00184943 0.282682 -0.0405527 23599.4 3.47505 
12 63.0638 62.8982 -4.56633 0 0.0720756 0.992794 -0.0477747 23770.8 11.221 
20 61.8888 61.18 -9.33976 0 0.251527 1.64762 0.0723781 23752.5 18.5172 
28 59.1592 57.5944 -13.5164 0 0.518426 2.20906 0.0152498 22943.2 24.5925 
36 55.6894 53.0425 -16.9647 0 0.911135 2.84878 -0.00795671 22497.6 29.2803 
44 50.216 46.472 -19.0262 0 1.5724 3.84063 -0.0821504 22747.2 31.6725 
52 19.1274 12.113 -14.8031 0 4.9715 4.06804 -0.0900028 15391.9 12.7947 
60 0.495841 -0.266372 -0.418216 0 0.300762 -0.191562 -0.0235577 496.948 0.0263893 
68 0.399292 -0.214508 -0.33678 0 0.218191 -0.138974 0.00112863 390.419 0.00257554 
76 0.358129 -0.19239 -0.302063 0 0.175655 -0.111878 0.00569116 329.104 -0.0105672 
84 0.350316 -0.188193 -0.295473 0 0.158138 -0.100721 -0.00365929 308.002 -0.0169354 
92 0.361314 -0.194097 -0.304753 0 0.147597 -0.0940045 0.000603594 324.667 -0.0230432 
100 0.36529 -0.196241 -0.308101 0 0.129471 -0.0824645 -0.0107703 308.776 -0.0285508 
108 0.436775 -0.234638 -0.368398 0 0.131336 -0.0836496 -0.0143739 340.881 -0.0371521 
116 0.484692 -0.260381 -0.408813 0 0.112718 -0.0717923 -0.000786175 364.549 -0.0430728 
124 0.49477 -0.49477 0 0 0 0.0263219 0.010514 233.824 -0.0837949 
132 0.544629 -0.544629 0 0 0 0.000724844 -0.00316468 250.367 -0.0219617 
5 63.9084 63.908 -0.21227 0 0.00152064 0.457818 -0.0269004 23834.5 4.45813 
13 63.1994 62.9852 -5.19953 0 0.0798037 0.966712 -0.0343531 23010.3 12.2128 
21 61.4871 60.6882 -9.87961 0 0.291781 1.79234 -0.00521966 23950.9 19.3152 
29 59.1771 57.4752 -14.0903 0 0.573301 2.33853 0.0332915 23331.7 25.4404 
37 55.3662 52.5654 -17.3866 0 1.04896 3.17136 0.0605598 23264.9 29.8873 
45 48.8987 45.0682 -18.9723 0 1.58102 3.75566 0.0683366 22080.6 31.4205 
53 12.3264 5.82541 -10.863 0 4.03851 2.16569 0.00441761 9987.23 7.46777 
61 0.479444 -0.257561 -0.404387 0 0.293363 -0.186848 -0.00767033 476.621 0.0271678 
69 0.362608 -0.194793 -0.305844 0 0.19772 -0.125928 -0.00093668 367.023 0.00202234 
77 0.35766 -0.192135 -0.30167 0 0.177789 -0.113235 -0.00399595 327.229 -0.00893659 
85 0.328245 -0.176337 -0.276858 0 0.147141 -0.0937171 0.01038 285.304 -0.0162035 
93 0.348226 -0.187075 -0.293708 0 0.143024 -0.0910975 -0.00124091 319.178 -0.0214554 
101 0.381868 -0.205141 -0.322087 0 0.136577 -0.0869877 0.00604398 328.036 -0.0287355 
109 0.444223 -0.238639 -0.374681 0 0.134562 -0.085704 0.00106666 354.957 -0.0365469 
117 0.311601 -0.311601 0 0 0 0.00526282 -0.00767448 210.393 -0.0879553 
125 0.526 -0.526 0 0 0 0.00185833 0.000620986 257.305 -0.0805999 
133 0.585307 -0.585307 0 0 0 0.00473109 -0.00808037 277.854 -0.0141612 
6 64.1022 64.0966 -0.846364 0 0.00636781 0.482245 0.0383973 23844.5 5.46552 
14 63.0283 62.7604 -5.80462 0 0.0938182 1.01438 0.008028 23543.4 13.1428 
22 61.0699 60.1763 -10.4088 0 0.324385 1.87536 0.0264769 23612.4 20.0885 
30 58.5544 56.73 -14.5026 0 0.626652 2.45128 -0.0359483 23329.6 26 
38 54.4354 51.5104 -17.6038 0 1.01568 2.97198 0.0492424 22412.1 30.0528 
46 47.7696 43.8421 -18.9685 0 1.79673 4.15281 -0.0512383 22885 31.3914 
54 7.81887 2.30082 -7.47269 0 3.18733 0.981371 0.00712176 6667.36 4.18599 
62 0.453026 -0.243369 -0.382105 0 0.260274 -0.165773 0.010444 437.756 0.0126853 
70 0.397429 -0.213502 -0.335211 0 0.209796 -0.133623 0.0114714 357.593 -0.00252886 
78 0.3735 -0.200652 -0.315025 0 0.174406 -0.111086 0.00715368 338.325 -0.0161275 
86 0.367916 -0.197649 -0.310318 0 0.154196 -0.098211 0.00396481 313.228 -0.0237479 
94 0.360265 -0.193536 -0.303866 0 0.134934 -0.0859414 -0.000274702 281.423 -0.0280444 
102 0.396669 -0.213093 -0.334571 0 0.150778 -0.0960325 0.0103631 347.62 -0.0255868 
110 0.419412 -0.22531 -0.353754 0 0.10624 -0.0676654 -0.00816865 319.839 -0.0408003 
118 0.35212 -0.35212 0 0 0 -0.00251719 0.0073725 220.692 -0.0937127 
126 0.554964 -0.554964 0 0 0 0.000441795 -0.00757712 264.749 -0.0760866 
134 0.53634 -0.53634 0 0 0 0.0220439 0.0147307 246.977 -0.00432548 
7 64.0318 64.0147 -1.47845 0 0.0132299 0.572837 -0.0313299 23326.6 6.45174 
15 62.633 62.3067 -6.38473 0 0.124414 1.21412 -0.0364963 23562.3 14.0178 
23 61.0276 60.0292 -10.9938 0 0.357488 1.95198 0.0024189 24006.8 20.9724 
31 58.213 56.2539 -14.9749 0 0.694039 2.6072 -0.0573737 23951 26.6691 
39 54.1941 51.1063 -18.032 0 1.09654 3.10783 -0.0359739 22827 30.6319 
47 46.2637 42.2765 -18.7891 0 1.97548 4.44495 -0.011287 22958.7 31.0652 
55 4.63914 0.486916 -4.61351 0 2.27751 0.240371 -0.00414394 3991.7 2.11673 
63 0.423374 -0.227436 -0.357097 0 0.238528 -0.15192 0.0122218 425.547 0.00822858 
71 0.371523 -0.199588 -0.313359 0 0.205297 -0.13076 0.00388882 375.282 0.00384727 
79 0.348501 -0.187218 -0.293943 0 0.156466 -0.099656 -0.00784643 308.061 -0.0186343 
87 0.362164 -0.194558 -0.305467 0 0.168321 -0.107207 0.00853616 358.785 -0.0141156 
95 0.357755 -0.192188 -0.301749 0 0.135867 -0.0865358 -0.0234081 282.735 -0.0264742 
103 0.390479 -0.209767 -0.32935 0 0.133042 -0.0847362 -0.00767 325.947 -0.0308524 
111 0.40617 -0.218203 -0.342581 0 0.115651 -0.0736622 -0.00217006 320.898 -0.0342697 
119 0.384738 -0.384738 0 0 0 0.00443325 0.00359835 224.992 -0.0961881 
127 0.551274 -0.551274 0 0 0 0.0134353 -0.00174996 246.443 -0.0666888 
8 63.9239 63.8892 -2.10649 0 0.0223976 0.679315 0.0445434 23343 7.43059 
16 62.7546 62.3614 -7.01362 0 0.137481 1.22241 0.0166421 23640.2 14.9965 
24 60.5727 59.4711 -11.4998 0 0.378846 1.9592 0.059154 23453.3 21.6978 
32 57.5461 55.4607 -15.3514 0 0.737628 2.66486 -0.0166174 23170.7 27.1586 
40 53.6225 50.3887 -18.3397 0 1.23671 3.39788 -0.0872207 23206.5 31.0468 
48 44.1969 40.2088 -18.3472 0 2.13381 4.67636 -0.0123616 22774.7 30.3237 
56 2.58266 -0.228057 -2.57257 0 1.47813 -0.131036 0.00310035 2424.24 0.957307 
64 0.433971 -0.23314 -0.366028 0 0.257766 -0.164183 0.000208928 450.424 0.0180603 
72 0.361592 -0.19425 -0.304985 0 0.192979 -0.122911 -0.00124762 353.623 -0.000845816 
80 0.325182 -0.174687 -0.274276 0 0.172654 -0.109964 -0.00490622 316.561 -0.00121507 
88 0.336998 -0.181039 -0.28424 0 0.150851 -0.0960798 -0.008185 337.895 -0.015985 
96 0.382621 -0.205546 -0.322723 0 0.151719 -0.0966315 -0.00467356 350.39 -0.024845 
104 0.405201 -0.217682 -0.341764 0 0.137003 -0.087262 0.0130075 353.432 -0.0317574 
112 0.412887 -0.221805 -0.34825 0 0.0928534 -0.0591396 0.00518225 300.816 -0.0419959 
120 0.415154 -0.415154 0 0 0 0.0148912 0.00874269 209.662 -0.0970959 
128 0.559929 -0.559929 0 0 0 0.026601 -0.0155693 284.886 -0.0587045 
