ITEM: TIMESTEP
23000
ITEM: NUMBER OF SURFS
134
ITEM: BOX BOUNDS oo ao pp
-10 10
0 10
-0.5 0.5
ITEM: SURFS id f_avg_pressure[1] f_avg_pressure[2] f_avg_pressure[3] f_avg_pressure[4] f_avg_shear[1] f_avg_shear[2] f_avg_shear[3] f_avg_heat_flux[*] f_avg_fdrag[*] 
1 64.0825 64.0406 2.31811 0 0.00152683 -0.0421804 -0.0088511 21184.4 0.496178 
9 63.4594 63.4011 -2.71853 0 0.0366591 0.854956 0.0242061 24652.8 8.35842 
17 62.4324 61.9694 -7.58966 0 0.168234 1.37363 0.00840972 23704.1 15.8667 
25 60.2523 59.0405 -12.0232 0 0.413903 2.03248 0.0612122 23613.6 22.459 
33 57.3375 55.1057 -15.8414 0 0.784674 2.72957 -0.0263542 23455 27.8447 
41 52.6879 49.3301 -18.5085 0 1.19786 3.19263 0.0553981 22385.9 31.1219 
49 41.338 37.4363 -17.5315 0 2.4498 5.23125 0.0184838 22706.9 29.1258 
57 1.43314 -0.398723 -1.37656 0 0.912747 -0.264379 0.00353072 1436.57 0.392262 
65 0.40445 -0.217274 -0.341133 0 0.226545 -0.14429 -0.00471183 390.207 0.00672025 
73 0.373356 -0.20057 -0.314907 0 0.18377 -0.117046 0.007463 351.876 -0.0110364 
81 0.3555 -0.190977 -0.299846 0 0.174569 -0.111186 -0.00838841 335.017 -0.00966374 
89 0.330879 -0.177752 -0.279079 0 0.14555 -0.0927041 -0.00280592 309.998 -0.0167787 
97 0.371838 -0.199758 -0.313624 0 0.143072 -0.0911273 -0.00469764 328.005 -0.0256837 
105 0.434229 -0.23327 -0.366251 0 0.141762 -0.0902898 0.0101325 348.762 -0.0352422 
113 0.459823 -0.24702 -0.387838 0 0.125038 -0.0796389 -0.00402941 344.085 -0.03869 
121 0.428183 -0.428183 0 0 0 0.011288 0.00494886 213.731 -0.0932371 
129 0.548218 -0.548218 0 0 0 0.0190674 -0.0080774 257.331 -0.0486341 
2 63.8909 63.8688 1.67982 0 -0.00107394 0.0408326 -0.00566065 22044.3 1.48463 
10 63.3624 63.2744 -3.33912 0 0.0379381 0.718905 0.0154917 23137.7 9.32244 
18 62.1767 61.6378 -8.16799 0 0.19994 1.5088 0.04079 24215.7 16.7413 
26 59.8912 58.5658 -12.53 0 0.460612 2.15292 0.00391691 23327.5 23.1928 
34 56.9257 54.5521 -16.2665 0 0.802598 2.69162 -0.0526188 22887.7 28.4007 
42 52.0769 48.5749 -18.7744 0 1.33674 3.45854 0.0133382 22476.2 31.4652 
50 35.9664 31.5991 -17.1778 0 3.16619 5.8243 -0.0302731 22330.5 25.2516 
58 0.742276 -0.339801 -0.659931 0 0.483556 -0.248985 -0.00861097 729.479 0.108917 
66 0.396506 -0.213002 -0.334436 0 0.227643 -0.144985 0.00146691 404.289 0.010489 
74 0.377571 -0.202835 -0.318463 0 0.193438 -0.123204 -0.000322173 365.828 -0.00609314 
82 0.361164 -0.194025 -0.30462 0 0.165305 -0.105289 -0.00830571 327.104 -0.0166719 
90 0.387206 -0.20801 -0.326588 0 0.156687 -0.0997965 -0.000335054 316.91 -0.0263048 
98 0.367854 -0.197613 -0.310267 0 0.144366 -0.0919489 0.000331397 322.499 -0.0236726 
106 0.411707 -0.221171 -0.347254 0 0.128718 -0.081982 0.00555876 330.034 -0.034821 
114 0.449967 -0.241727 -0.379524 0 0.108583 -0.0691591 0.00665209 366.086 -0.0410993 
122 0.447184 -0.447184 0 0 0 0.0258943 -0.0110338 217.06 -0.0901614 
130 0.576614 -0.576614 0 0 0 0.0123009 0.0169522 254.49 -0.0418526 
3 64.1196 64.1109 1.05298 0 -0.00230383 0.140268 0.0655634 22812.7 2.48403 
11 63.4436 63.3194 -3.96931 0 0.0533839 0.851592 0.020157 23044.8 10.3123 
19 62.0945 61.4728 -8.76504 0 0.238716 1.67421 -0.0470715 23754.3 17.6551 
27 59.502 58.0592 -13.0236 0 0.500334 2.23048 0.026193 23719.9 23.8964 
35 56.3796 53.8669 -16.6438 0 0.893622 2.89217 0.0122563 23098.2 28.9087 
43 51.4679 47.8212 -19.0283 0 1.51999 3.81998 -0.0397613 23527.3 31.8179 
51 27.0769 20.8578 -17.2659 0 4.6764 5.64926 0.00554217 20200.9 18.8574 
59 0.51281 -0.275486 -0.432529 0 0.324617 -0.206754 0.00280757 512.789 0.0381173 
67 0.389778 -0.209392 -0.328758 0 0.212122 -0.135105 -0.00270203 381.816 0.00193278 
75 0.357998 -0.192321 -0.301952 0 0.182977 -0.116543 -0.00272223 349.04 -0.0059793 
83 0.367892 -0.197631 -0.310301 0 0.167097 -0.106425 0.00356744 345.382 -0.0174652 
91 0.332569 -0.178659 -0.280505 0 0.143495 -0.0913948 -0.00189299 285.722 -0.0177241 
99 0.35956 -0.193157 -0.303271 0 0.13237 -0.0843081 0.00482188 297.072 -0.0265088 
107 0.41174 -0.221195 -0.347279 0 0.13407 -0.0853937 -0.00531105 330.71 -0.0320745 
115 0.455252 -0.244565 -0.383982 0 0.111156 -0.0707972 -0.0063901 365.584 -0.0400482 
123 0.48941 -0.48941 0 0 0 0.0159121 0.000760838 249.253 -0.0907808 
131 0.602701 -0.602701 0 0 -1.93134e-16 0.0100079 -0.00857723 278.503 -0.0340247 
4 63.9968 63.9955 0.418686 0 -0.0021014 0.321195 -0.0226054 23379.1 3.47174 
12 63.2183 63.0523 -4.57752 0 0.0718429 0.989588 -0.0556393 24144.7 11.2484 
20 61.8261 61.1181 -9.33031 0 0.254151 1.66481 0.0291947 23739.2 18.4993 
28 59.1186 57.5549 -13.5071 0 0.516661 2.20154 0.00595041 22935.8 24.575 
36 55.6919 53.0449 -16.9655 0 0.916644 2.86601 -0.0107778 22486.6 29.2846 
44 50.3958 46.6385 -19.0943 0 1.57908 3.85696 -0.0645766 22866.4 31.7867 
52 19.0802 12.0831 -14.7666 0 4.96428 4.06213 -0.0648491 15345.9 12.7669 
60 0.494038 -0.265403 -0.416695 0 0.300066 -0.191119 -0.0213288 486.707 0.0265991 
68 0.390273 -0.209663 -0.329172 0 0.215394 -0.137193 0.0053479 378.853 0.00400851 
76 0.355594 -0.191029 -0.299925 0 0.174895 -0.111394 0.000413981 329.004 -0.0101873 
84 0.356427 -0.191476 -0.300628 0 0.157581 -0.100367 -0.00427016 317.566 -0.0190992 
92 0.360604 -0.193716 -0.304154 0 0.146032 -0.0930076 0.00247317 318.222 -0.0236299 
100 0.367538 -0.197449 -0.309998 0 0.133039 -0.0847372 -0.00760409 318.95 -0.0275416 
108 0.441415 -0.237131 -0.372312 0 0.138518 -0.0882243 -0.00975049 363.196 -0.0354654 
116 0.487448 -0.261861 -0.411137 0 0.118437 -0.075435 0.00428786 369.758 -0.0418363 
124 0.498699 -0.498699 0 0 0 0.015717 0.0114367 243.608 -0.0844604 
132 0.555801 -0.555801 0 0 0 0.00282378 0.000252562 252.83 -0.0224122 
5 63.8892 63.8888 -0.212206 0 0.00131913 0.39715 -0.0122358 23653.8 4.45677 
13 63.2371 63.0227 -5.20263 0 0.0816196 0.98871 -0.0323508 23224.2 12.2204 
21 61.5081 60.7089 -9.88298 0 0.29061 1.78515 -0.0151086 23954.1 19.3214 
29 59.0485 57.3502 -14.0596 0 0.572913 2.33695 0.0203513 23252.9 25.3855 
37 55.2991 52.5017 -17.3655 0 1.0355 3.13065 0.0172636 23264.6 29.8442 
45 48.9198 45.0875 -18.9804 0 1.59326 3.78475 -0.0013696 22144 31.4418 
53 12.3677 5.84492 -10.8994 0 4.05775 2.17601 -0.030217 10005.5 7.49711 
61 0.478121 -0.25685 -0.403271 0 0.289106 -0.184137 -0.00657089 482.817 0.0244774 
69 0.372551 -0.200134 -0.31423 0 0.204833 -0.130458 4.40098e-05 375.664 0.00324611 
77 0.35503 -0.190722 -0.299452 0 0.174051 -0.110854 -0.000694351 326.605 -0.0103851 
85 0.337196 -0.181145 -0.284407 0 0.153536 -0.0977902 0.00834659 295.539 -0.0153228 
93 0.349718 -0.187876 -0.294967 0 0.140598 -0.0895525 -0.00818135 322.417 -0.0230271 
101 0.3831 -0.205803 -0.323126 0 0.13669 -0.0870596 0.00385521 337.581 -0.0289655 
109 0.426413 -0.229071 -0.359659 0 0.12549 -0.079926 0.00350613 332.784 -0.0363728 
117 0.311251 -0.311251 0 0 0 0.00764507 -0.0077209 206.278 -0.0878564 
125 0.522846 -0.522846 0 0 0 -0.000673879 0.000882099 263.172 -0.0801165 
133 0.588044 -0.588044 0 0 0 -0.000346719 -0.000825484 270.941 -0.0142274 
6 64.0431 64.0375 -0.845584 0 0.00638861 0.48382 0.00618873 23620.7 5.46048 
14 63.0474 62.7794 -5.80638 0 0.0970613 1.04944 0.0378026 23633.2 13.1475 
22 61.1553 60.2605 -10.4234 0 0.323456 1.86999 -0.0055994 23653.5 20.1161 
30 58.5889 56.7635 -14.5111 0 0.630561 2.46658 -0.0177264 23368 26.0169 
38 54.4428 51.5174 -17.6062 0 1.02423 2.99699 0.0761743 22429.3 30.0617 
46 47.8517 43.9174 -19.0011 0 1.79353 4.1454 -0.00675946 22925.8 31.441 
54 7.87366 2.31694 -7.52504 0 3.23474 0.995967 0.0276438 6682.88 4.23444 
62 0.446883 -0.240069 -0.376924 0 0.257263 -0.163855 0.0089652 435.034 0.0129014 
70 0.391737 -0.210444 -0.33041 0 0.207299 -0.132033 0.00476662 365.955 -0.00214602 
78 0.363416 -0.195235 -0.30652 0 0.174409 -0.111088 0.00641998 344.821 -0.0127968 
86 0.361842 -0.194386 -0.305195 0 0.156938 -0.0999576 0.00267686 325.392 -0.0204661 
94 0.365918 -0.196573 -0.308634 0 0.140383 -0.0894116 0.000200514 298.376 -0.0268905 
102 0.402793 -0.216382 -0.339737 0 0.149093 -0.094959 0.0113559 347.628 -0.0276297 
110 0.425654 -0.228663 -0.359018 0 0.111185 -0.0708151 -0.00333258 328.171 -0.0402546 
118 0.351832 -0.351832 0 0 0 0.00454908 0.00681355 214.429 -0.0936362 
126 0.543759 -0.543759 0 0 0 -0.00125877 -0.00585839 261.316 -0.0745505 
134 0.559754 -0.559754 0 0 0 0.0167112 0.0053559 257.073 -0.00451431 
7 63.9131 63.8961 -1.47571 0 0.0122871 0.532013 -0.0297808 23225.2 6.43969 
15 62.7075 62.3809 -6.39234 0 0.126738 1.23679 0.00503192 23724.8 14.035 
23 60.9962 59.9983 -10.9881 0 0.357843 1.95392 0.0123732 23995.9 20.9618 
31 58.185 56.2269 -14.9677 0 0.686689 2.57958 -0.0331852 23960.1 26.653 
39 54.2138 51.1248 -18.0385 0 1.11224 3.15233 -0.0403955 22886.7 30.652 
47 46.2573 42.2706 -18.7865 0 1.98333 4.46261 -0.0598056 23001.5 31.0666 
55 4.58314 0.481038 -4.55782 0 2.24377 0.23681 -0.000907312 3954.31 2.0864 
63 0.431626 -0.231869 -0.364057 0 0.242795 -0.154637 0.0116689 428.963 0.0081054 
71 0.381586 -0.204995 -0.321847 0 0.209863 -0.133668 0.00362448 372.428 0.00328071 
79 0.355539 -0.190998 -0.299879 0 0.158916 -0.101217 -0.00145056 316.991 -0.0194405 
87 0.360813 -0.193832 -0.304327 0 0.170074 -0.108323 0.00845738 358.243 -0.012782 
95 0.362084 -0.194513 -0.3054 0 0.134907 -0.0859239 -0.0150963 300.958 -0.0280189 
103 0.382697 -0.205587 -0.322787 0 0.131762 -0.0839209 -0.00919903 326.213 -0.0296862 
111 0.432032 -0.232096 -0.364394 0 0.128024 -0.0815432 0.00170294 352.53 -0.0347778 
119 0.394122 -0.394122 0 0 0 0.00897538 -0.00167086 223.159 -0.0985343 
127 0.550345 -0.550345 0 0 0 0.00980878 0.00196082 255.453 -0.0665764 
8 63.9908 63.956 -2.10869 0 0.0211773 0.642303 -0.0311111 23325.3 7.43822 
16 62.6871 62.2944 -7.00608 0 0.141297 1.25634 0.0364599 23693.7 14.9814 
24 60.4889 59.3888 -11.4838 0 0.381582 1.97335 0.044043 23390.1 21.669 
32 57.5062 55.4222 -15.3408 0 0.729584 2.6358 -0.0184688 23153.3 27.1362 
40 53.5739 50.3431 -18.3231 0 1.22596 3.36836 -0.0536162 23180.3 31.0129 
48 44.2861 40.2899 -18.3842 0 2.14271 4.69586 -0.00921651 22885.8 30.3882 
56 2.58526 -0.228287 -2.57517 0 1.47394 -0.130664 0.00333163 2418.58 0.95392 
64 0.425708 -0.228701 -0.359058 0 0.247308 -0.157522 -0.00360432 444.277 0.0136457 
72 0.352911 -0.189586 -0.297663 0 0.188369 -0.119975 -0.003716 351.082 -0.000809801 
80 0.324078 -0.174095 -0.273346 0 0.170957 -0.108883 0.0032686 326.582 -0.00187473 
88 0.334267 -0.179571 -0.281937 0 0.145201 -0.0924818 -0.00792413 325.222 -0.0181995 
96 0.377971 -0.203048 -0.318801 0 0.146312 -0.0931878 -0.00834961 351.201 -0.0261876 
104 0.401398 -0.215639 -0.338556 0 0.136562 -0.0869817 0.0130536 347.218 -0.0311265 
112 0.415818 -0.22338 -0.350722 0 0.0951513 -0.0606032 0.00483687 310.256 -0.0417602 
120 0.404874 -0.404874 0 0 0 0.0117805 0.00774663 204.384 -0.0946917 
128 0.566183 -0.566183 0 0 0 0.0135083 0.000301619 286.995 -0.0593602 
