ITEM: TIMESTEP
18000
ITEM: NUMBER OF SURFS
134
ITEM: BOX BOUNDS oo ao pp
-10 10
0 10
-0.5 0.5
ITEM: SURFS id f_avg_pressure[1] f_avg_pressure[2] f_avg_pressure[3] f_avg_pressure[4] f_avg_shear[1] f_avg_shear[2] f_avg_shear[3] f_avg_heat_flux[*] f_avg_fdrag[*] 
1 64.3812 64.339 2.32891 0 0.000958384 -0.0264765 0.00160319 21090.4 0.498486 
9 63.5887 63.5303 -2.72407 0 0.0385112 0.89815 0.00693213 24383.1 8.37568 
17 62.5617 62.0977 -7.60537 0 0.162603 1.32765 0.0337607 23631.6 15.8981 
25 60.3804 59.166 -12.0488 0 0.427116 2.09737 0.0621982 23797.3 22.5114 
33 57.2649 55.0359 -15.8213 0 0.764806 2.66045 -0.0130217 23375.2 27.8 
41 52.5605 49.2107 -18.4637 0 1.17416 3.12945 0.0228646 22223.1 31.0338 
49 41.3208 37.4208 -17.5242 0 2.45051 5.23276 -0.0218961 22713.6 29.115 
57 1.46002 -0.4062 -1.40238 0 0.935677 -0.27102 -0.0163089 1467.93 0.404055 
65 0.395604 -0.212522 -0.333672 0 0.221056 -0.140795 -0.000392447 387.168 0.00618654 
73 0.36748 -0.197413 -0.309951 0 0.178998 -0.114007 -0.00339855 333.699 -0.0120971 
81 0.370443 -0.199005 -0.31245 0 0.176831 -0.112627 0.00205621 345.065 -0.0130601 
89 0.338985 -0.182107 -0.285916 0 0.139321 -0.0887367 -0.0152696 308.221 -0.0222931 
97 0.388067 -0.208477 -0.327313 0 0.15681 -0.0998776 -0.015371 372.038 -0.0234096 
105 0.433322 -0.232782 -0.365486 0 0.134696 -0.0857897 -0.000204496 347.535 -0.0377756 
113 0.458521 -0.246321 -0.38674 0 0.137898 -0.0878294 -0.0180762 355.919 -0.0343894 
121 0.420669 -0.420669 0 0 0 0.0179003 -0.00288828 203.353 -0.0916009 
129 0.553951 -0.553951 0 0 0 0.0216186 -0.00782244 266.944 -0.0491427 
2 63.9101 63.888 1.68032 0 -0.00148037 0.0562854 -0.0252726 22009.1 1.48507 
10 63.2791 63.1912 -3.33473 0 0.0357057 0.676603 -0.0412712 22930.8 9.30987 
18 61.9814 61.4442 -8.14233 0 0.186389 1.40654 -0.0917282 23935.9 16.6852 
26 59.8898 58.5645 -12.5297 0 0.462614 2.16228 0.0659291 23227.6 23.193 
34 56.8251 54.4557 -16.2378 0 0.801159 2.6868 -0.0818306 22807.3 28.3505 
42 51.987 48.491 -18.742 0 1.3244 3.42661 -0.0145538 22401 31.4045 
50 36.0319 31.6567 -17.2091 0 3.19341 5.87438 0.0129002 22378.2 25.3132 
58 0.761799 -0.348738 -0.677288 0 0.494324 -0.25453 -0.0119629 734.388 0.110305 
66 0.406088 -0.218149 -0.342518 0 0.236429 -0.150581 -0.00403743 402.845 0.0130956 
74 0.376632 -0.20233 -0.31767 0 0.184964 -0.117807 -0.00364532 355.561 -0.0112606 
82 0.357095 -0.19184 -0.301189 0 0.157793 -0.100505 -0.0118242 311.876 -0.0197635 
90 0.375584 -0.201767 -0.316787 0 0.16195 -0.103149 0.00831575 320.114 -0.0204072 
98 0.36791 -0.197643 -0.310314 0 0.144235 -0.091865 -0.000112468 313.896 -0.0237446 
106 0.413255 -0.222003 -0.348561 0 0.127 -0.0808879 0.00642736 319.048 -0.0357813 
114 0.465389 -0.250012 -0.392532 0 0.118071 -0.075202 0.0072342 386.571 -0.040728 
122 0.458365 -0.458365 0 0 0 0.0256751 -0.0212453 227.55 -0.0924158 
130 0.568548 -0.568548 0 0 0 0.00973955 0.0213762 255.28 -0.0412671 
3 64.0637 64.0551 1.05207 0 -0.00293991 0.178997 0.176747 22676.7 2.48184 
11 63.3879 63.2637 -3.96582 0 0.0517163 0.824989 0.0097485 22851.2 10.303 
19 62.2471 61.6239 -8.78658 0 0.240637 1.68769 -0.0962236 23765.4 17.6988 
27 59.5866 58.1417 -13.0422 0 0.498031 2.22021 0.0118474 23752.8 23.9292 
35 56.3962 53.8828 -16.6487 0 0.900854 2.91558 -0.0484793 23060.1 28.9209 
43 51.3365 47.6991 -18.9797 0 1.5132 3.80291 -0.0489005 23471 31.7347 
51 27.0657 20.8492 -17.2588 0 4.66131 5.63103 -0.124058 20006.5 18.8399 
59 0.51294 -0.275556 -0.432639 0 0.32469 -0.206801 0.0088023 537.235 0.0381197 
67 0.39092 -0.210005 -0.329721 0 0.206701 -0.131652 -0.00554143 370.542 -0.00233889 
75 0.354137 -0.190246 -0.298696 0 0.184048 -0.117225 -0.00856109 337.639 -0.00396655 
83 0.377864 -0.202988 -0.318711 0 0.167605 -0.106748 0.00784155 336.472 -0.0202387 
91 0.339836 -0.182563 -0.286634 0 0.147064 -0.093668 0.0028486 289.781 -0.0178928 
99 0.366074 -0.196657 -0.308765 0 0.13877 -0.0883845 0.0103954 305.443 -0.0252438 
107 0.397507 -0.213548 -0.335274 0 0.134061 -0.0853883 -0.00319397 301.362 -0.0292626 
115 0.455514 -0.244706 -0.384203 0 0.103866 -0.0661538 0.00041263 365.11 -0.0422789 
123 0.478109 -0.478109 0 0 0 0.0207207 0.0112759 234.71 -0.0886847 
131 0.586396 -0.586396 0 0 -1.87434e-16 0.0125295 -0.00461416 277.556 -0.0331043 
4 63.9315 63.9302 0.418259 0 -0.00193556 0.295847 -0.074675 23321.3 3.46821 
12 63.1143 62.9486 -4.56999 0 0.0672622 0.926492 -0.0187506 23765.5 11.2291 
20 61.8426 61.1343 -9.33279 0 0.258115 1.69078 0.0473389 23662.9 18.5054 
28 59.0805 57.5178 -13.4984 0 0.506339 2.15755 0.00484342 22867.6 24.555 
36 55.7213 53.0728 -16.9744 0 0.914641 2.85975 -0.00573263 22462.5 29.2987 
44 50.2664 46.5187 -19.0453 0 1.58841 3.87974 -0.0647524 22669.9 31.7139 
52 19.1275 12.113 -14.8032 0 4.99083 4.08385 -0.0908355 15427.3 12.8092 
60 0.489697 -0.263071 -0.413033 0 0.296361 -0.188759 -0.0118899 470.199 0.0255452 
68 0.391324 -0.210227 -0.330059 0 0.214363 -0.136536 -0.00589559 382.541 0.00289248 
76 0.363482 -0.195266 -0.306579 0 0.186193 -0.11859 0.00433694 340.302 -0.00572893 
84 0.360711 -0.193777 -0.304241 0 0.167307 -0.106561 0.000605989 313.757 -0.0149156 
92 0.365532 -0.196363 -0.30831 0 0.149821 -0.0954211 0.00828876 338.646 -0.0230638 
100 0.356947 -0.191759 -0.301065 0 0.120527 -0.0767681 -0.00909318 293.114 -0.0304586 
108 0.434449 -0.233388 -0.366436 0 0.132943 -0.0846735 -0.0189282 340.154 -0.0361245 
116 0.509831 -0.273886 -0.430016 0 0.116896 -0.0744535 0.0032258 374.32 -0.0457933 
124 0.488653 -0.488653 0 0 0 0.0221945 0.0173002 236.147 -0.0827588 
132 0.531036 -0.531036 0 0 0 -0.00332403 -0.00940901 250.223 -0.0214135 
5 63.7806 63.7803 -0.211846 0 0.00126486 0.38081 -0.0241652 23562.5 4.4492 
13 63.2249 63.0106 -5.20163 0 0.0782432 0.947809 -0.0449739 23023.8 12.2174 
21 61.5122 60.713 -9.88364 0 0.293377 1.80215 -0.00622236 23978.3 19.3236 
29 59.1513 57.4501 -14.0841 0 0.568303 2.31815 0.0946112 23356.9 25.4272 
37 55.3798 52.5783 -17.3908 0 1.04056 3.14596 0.018675 23245.3 29.8897 
45 48.7787 44.9575 -18.9257 0 1.58059 3.75465 0.0670563 22047 31.3457 
53 12.2787 5.80286 -10.821 0 4.03921 2.16607 0.0505426 9924.65 7.45123 
61 0.470278 -0.252637 -0.396656 0 0.28015 -0.178433 -0.00525932 458.908 0.0208782 
69 0.361993 -0.194462 -0.305325 0 0.190299 -0.121202 -0.00393603 368.021 -0.00287641 
77 0.337836 -0.181485 -0.284949 0 0.167492 -0.106676 -0.00497407 312.491 -0.0087173 
85 0.330973 -0.177802 -0.279159 0 0.147725 -0.0940891 0.0144317 280.977 -0.0166926 
93 0.355503 -0.190984 -0.299846 0 0.145964 -0.0929702 -0.00370908 336.848 -0.0219272 
101 0.378268 -0.203208 -0.31905 0 0.139576 -0.088898 0.00823322 326.341 -0.0266679 
109 0.449432 -0.241437 -0.379074 0 0.139226 -0.0886748 -0.00266621 361.882 -0.0358915 
117 0.312743 -0.312743 0 0 0 0.013588 -0.010017 200.818 -0.0882777 
125 0.519811 -0.519811 0 0 0 -0.000118445 0.00466026 257.341 -0.0796515 
133 0.57206 -0.57206 0 0 0 -0.00509224 -0.00643228 268.883 -0.0138407 
6 64.0285 64.023 -0.845392 0 0.00604607 0.457879 0.0324746 23663.8 5.45922 
14 62.905 62.6376 -5.79326 0 0.0919713 0.994408 -0.0386897 23488.5 13.1168 
22 61.1797 60.2845 -10.4276 0 0.316138 1.82768 0.0477782 23683.7 20.1217 
30 58.5809 56.7557 -14.5091 0 0.609734 2.38511 -0.00800948 23205.7 26.0039 
38 54.4272 51.5026 -17.6012 0 1.01624 2.97362 0.0755981 22368.1 30.0487 
46 47.7829 43.8543 -18.9737 0 1.79771 4.15507 -0.00578168 22871.8 31.4005 
54 7.82601 2.30292 -7.4795 0 3.16439 0.974308 0.0208148 6680.85 4.17009 
62 0.447085 -0.240177 -0.377095 0 0.262978 -0.167495 0.014625 433.116 0.0171084 
70 0.400121 -0.214948 -0.337482 0 0.212299 -0.135217 0.0152346 361.284 -0.00180757 
78 0.365611 -0.196414 -0.308371 0 0.172651 -0.109969 0.00535682 326.914 -0.0146015 
86 0.351582 -0.188874 -0.296541 0 0.146625 -0.0933889 -0.000984707 301.329 -0.0230901 
94 0.363069 -0.195043 -0.306231 0 0.129818 -0.082683 -0.00198951 277.926 -0.0312136 
102 0.376811 -0.202425 -0.317822 0 0.135125 -0.0860627 0.00949031 300.347 -0.0276339 
110 0.408089 -0.219227 -0.344203 0 0.0977242 -0.0622416 -0.00723815 313.269 -0.0416338 
118 0.353313 -0.353313 0 0 0 -0.0031571 0.00779435 211.425 -0.0940302 
126 0.56014 -0.56014 0 0 0 -0.00127665 -0.00104805 273.871 -0.0767963 
134 0.541304 -0.541304 0 0 0 0.0197411 0.0132998 252.567 -0.00436551 
7 63.9633 63.9462 -1.47687 0 0.012781 0.553401 -0.0256662 23253.1 6.44479 
15 62.6811 62.3546 -6.38965 0 0.122076 1.1913 -0.0858007 23550.8 14.0281 
23 61.0613 60.0623 -10.9999 0 0.356822 1.94835 -0.00312565 23995.7 20.9837 
31 58.204 56.2453 -14.9726 0 0.705025 2.64847 -0.0980215 23920.8 26.6702 
39 54.2771 51.1846 -18.0596 0 1.11323 3.15512 0.0317358 22734.4 30.6876 
47 46.3512 42.3564 -18.8246 0 2.00004 4.50021 0.0132937 23049.8 31.1385 
55 4.68391 0.491615 -4.65804 0 2.30206 0.242962 0.00597401 4046.14 2.13913 
63 0.409479 -0.219972 -0.345377 0 0.22582 -0.143825 0.00719519 389.463 0.00433799 
71 0.374091 -0.200968 -0.315525 0 0.207647 -0.132257 0.00258479 371.281 0.00450128 
79 0.35612 -0.19131 -0.300369 0 0.161198 -0.10267 -0.0109972 313.26 -0.0182468 
87 0.360357 -0.193587 -0.303943 0 0.157751 -0.100474 -0.0010126 330.122 -0.0192803 
95 0.346174 -0.185966 -0.291981 0 0.12505 -0.0796459 -0.0264397 261.364 -0.0286347 
103 0.391554 -0.210345 -0.330256 0 0.125856 -0.0801595 -0.00182126 319.591 -0.033974 
111 0.401987 -0.215956 -0.339053 0 0.113583 -0.0723453 -0.0063174 320.524 -0.0342097 
119 0.376858 -0.376858 0 0 0 -0.000293667 0.00942503 220.953 -0.094218 
127 0.554469 -0.554469 0 0 0 0.0212326 0.00360524 254.784 -0.0670753 
8 63.9358 63.9011 -2.10688 0 0.0209125 0.634271 0.0993869 23183.8 7.43181 
16 62.863 62.4691 -7.02573 0 0.134941 1.19982 0.0143612 23708.2 15.0218 
24 60.5004 59.4001 -11.486 0 0.38119 1.97132 0.07092 23342.7 21.6729 
32 57.5048 55.4209 -15.3404 0 0.737895 2.66582 0.00330258 23110.1 27.1395 
40 53.6284 50.3943 -18.3417 0 1.22668 3.37033 -0.0940655 23063.1 31.0442 
48 44.2669 40.2725 -18.3762 0 2.13383 4.67639 0.0368281 22821.5 30.3694 
56 2.61825 -0.2312 -2.60802 0 1.49678 -0.132689 0.0232824 2459.19 0.969185 
64 0.443734 -0.238385 -0.374263 0 0.264162 -0.168257 -2.72016e-05 453.647 0.0189042 
72 0.346634 -0.186214 -0.292368 0 0.182483 -0.116226 -0.00922975 333.023 -0.00248255 
80 0.327026 -0.175678 -0.275832 0 0.173513 -0.110511 -0.0127 320.687 -0.00129359 
88 0.340822 -0.183093 -0.287466 0 0.148621 -0.09466 -0.0163382 342.553 -0.0182531 
96 0.394716 -0.212043 -0.332924 0 0.152223 -0.0969523 -0.00736213 348.18 -0.0276114 
104 0.405788 -0.217998 -0.342259 0 0.139483 -0.0888419 0.00913102 356.315 -0.0309053 
112 0.428471 -0.230177 -0.361394 0 0.104813 -0.0667571 0.00473191 325.514 -0.0408272 
120 0.412744 -0.412744 0 0 0 0.011053 0.0145351 214.298 -0.0965322 
128 0.54809 -0.54809 0 0 0 0.0215608 -0.00761275 279.182 -0.0574633 
