ITEM: TIMESTEP
15000
ITEM: NUMBER OF CELLS
10393
ITEM: BOX BOUNDS oo ao pp
-10 10
0 10
-0.5 0.5
ITEM: CELLS id proc f_avg_n f_avg_nrho f_avg_temp_tra f_avg_temp_rot f_avg_temp_vib f_avg_vel[1] f_avg_vel[2] f_avg_vel[3] f_avg_nrho_CO2 f_avg_nrho_O2 f_avg_nrho_C2 f_avg_nrho_CO f_avg_nrho_O f_avg_nrho_C 
1 0 145.15 2.22841e+18 137.779 137.919 136.434 7478.73 7.23304 0.438684 2.22841e+18 0 0 0 0 0 
5 0 154.215 2.36758e+18 140.545 136.381 136.253 7477.71 25.9278 -0.674254 2.36758e+18 0 0 0 0 0 
9 0 161.57 2.4805e+18 153.456 137.156 137.325 7476.61 32.6359 -0.114753 2.48034e+18 0 0 7.67623e+13 7.67623e+13 0 
13 0 163.32 2.50736e+18 140.216 139.344 137.252 7477.76 34.0318 -0.899698 2.50721e+18 0 0 0 1.53525e+14 0 
17 0 166.13 2.5505e+18 144.945 136.385 136.21 7477.15 30.7433 -1.08752 2.54981e+18 0 0 0 6.90861e+14 0 
21 0 165.655 2.54321e+18 145.506 137.169 137.203 7476.35 28.7691 -1.69758 2.54275e+18 0 0 1.53525e+14 3.07049e+14 0 
25 0 164.01 2.51796e+18 150.636 148.85 137.998 7477.62 21.6615 1.59179 2.51512e+18 7.67623e+13 0 9.21147e+14 1.84229e+15 0 
29 0 163.085 2.50376e+18 187.337 156.866 136.674 7472.68 17.0651 -0.212143 2.50153e+18 0 0 1.15143e+15 9.9791e+14 7.67623e+13 
33 0 158.805 2.43805e+18 256.855 148.4 138.225 7468.81 19.3329 -4.67584 2.43191e+18 0 0 1.2282e+15 4.83602e+15 7.67623e+13 
141 0 145.04 2.22672e+18 151.629 137.607 136.171 7475.48 -1.40196 -0.0278539 2.22618e+18 0 0 0 5.37336e+14 0 
145 0 143.81 2.20784e+18 145.35 138.092 135.681 7474.9 0.233279 -0.0608639 2.20761e+18 0 0 0 1.53525e+14 7.67623e+13 
149 0 144.365 2.21636e+18 148.258 137.501 136.956 7477.25 -0.557458 0.164759 2.21605e+18 0 0 7.67623e+13 2.30287e+14 0 
153 0 145.05 2.22687e+18 139.033 139.496 136.711 7475.76 0.0166864 0.50498 2.22664e+18 0 0 1.53525e+14 7.67623e+13 0 
157 0 144.545 2.21912e+18 170.809 141.262 136.513 7475.64 1.01926 1.63022 2.21828e+18 0 0 3.07049e+14 4.60574e+14 7.67623e+13 
161 0 146.535 2.24967e+18 196.055 141.505 138.103 7474.65 2.41277 1.73168 2.24775e+18 0 0 6.14098e+14 1.30496e+15 0 
165 0 147.19 2.25973e+18 184.766 142.658 138.465 7472.55 4.02736 -1.32534 2.25743e+18 0 0 6.14098e+14 1.68877e+15 0 
169 0 147.565 2.26549e+18 246.944 143.854 137.64 7470.57 3.93664 0.396499 2.2605e+18 0 0 9.9791e+14 3.99164e+15 0 
277 0 144.36 2.21628e+18 149.975 137.422 136.873 7477.76 -1.0015 0.197354 2.21605e+18 0 0 1.53525e+14 7.67623e+13 0 
281 0 144.55 2.2192e+18 157.073 139.497 136.332 7477.88 -0.952446 -2.55938 2.21881e+18 0 0 2.30287e+14 7.67623e+13 7.67623e+13 
285 0 144.085 2.21206e+18 160.126 137.025 136.142 7476.22 -2.2054 2.30665 2.21167e+18 0 0 2.30287e+14 1.53525e+14 0 
289 0 143.415 2.20177e+18 158.948 141.594 137.041 7475.96 1.71503 1.12486 2.20085e+18 0 0 6.14098e+14 3.07049e+14 0 
293 0 144.955 2.22542e+18 152.603 141.109 136.925 7477.48 -0.640437 -0.983329 2.2248e+18 0 0 2.30287e+14 3.83811e+14 0 
297 0 143.465 2.20254e+18 167.111 139.216 135.897 7476.37 -0.985287 0.0205015 2.20124e+18 0 0 3.07049e+14 9.9791e+14 0 
301 0 144.61 2.22012e+18 203.816 142.957 137.246 7473.6 -0.0811405 1.14247 2.21736e+18 0 0 4.60574e+14 2.30287e+15 0 
305 0 144.12 2.2126e+18 235.41 148.436 139.39 7471.38 0.465787 0.911126 2.20876e+18 0 0 9.9791e+14 2.8402e+15 0 
413 0 144.425 2.21728e+18 145.223 136.341 136.764 7477.69 -0.419502 -0.398498 2.21712e+18 0 0 0 1.53525e+14 0 
417 0 144.78 2.22273e+18 140.868 138.297 136.255 7477.06 -1.35501 0.658526 2.22265e+18 0 0 0 7.67623e+13 0 
421 0 143.985 2.21052e+18 142.895 137.589 136.768 7477.23 -0.52579 -0.698849 2.21045e+18 0 0 0 7.67623e+13 0 
425 0 143.83 2.20814e+18 152.712 138.164 137.464 7475.29 -0.339457 -0.536407 2.20761e+18 0 0 7.67623e+13 3.83811e+14 7.67623e+13 
429 0 144.08 2.21198e+18 191.636 141.989 136.708 7475.15 -0.225135 -1.89354 2.20991e+18 0 0 5.37336e+14 1.53525e+15 0 
433 0 145.27 2.23025e+18 183.734 140.138 136.584 7475.97 0.68067 -0.373202 2.22887e+18 0 0 3.07049e+14 1.07467e+15 0 
437 0 144.32 2.21567e+18 208.638 141.028 137.852 7472.98 0.067232 -0.735403 2.21336e+18 0 0 3.83811e+14 1.91906e+15 0 
441 0 143.79 2.20753e+18 225.249 144.247 137.2 7473.06 0.656827 2.23525 2.20408e+18 0 0 6.14098e+14 2.8402e+15 0 
445 0 145.925 2.24031e+18 305.336 154.616 138.707 7468.37 0.602838 -1.15164 2.23294e+18 0 0 1.76553e+15 5.45012e+15 1.53525e+14 
549 0 144.595 2.21989e+18 152.358 138.39 136.436 7476.42 -0.563642 -0.0882254 2.21966e+18 0 0 7.67623e+13 1.53525e+14 0 
553 0 143.675 2.20576e+18 148.61 137.605 136.036 7476.5 0.299048 1.3006 2.20515e+18 0 0 7.67623e+13 4.60574e+14 7.67623e+13 
557 0 144.395 2.21682e+18 145.057 138.887 136.535 7476.82 -0.449299 0.16567 2.21628e+18 0 0 2.30287e+14 3.07049e+14 0 
561 0 144.295 2.21528e+18 142.964 138.208 136.784 7476.62 0.212917 0.23433 2.2149e+18 0 0 0 3.07049e+14 7.67623e+13 
565 0 144.125 2.21267e+18 161.121 140.282 136.593 7475.59 0.833402 -0.463341 2.21175e+18 0 0 1.53525e+14 7.67623e+14 0 
569 0 144.455 2.21774e+18 147.102 139.052 136.309 7477.21 0.066808 -0.182773 2.2172e+18 0 0 2.30287e+14 3.07049e+14 0 
573 0 145.44 2.23286e+18 168.672 142.442 136.854 7475.3 1.72979 1.0563 2.23102e+18 0 0 6.14098e+14 1.2282e+15 0 
577 0 143.335 2.20054e+18 176.926 142.74 138.88 7474.21 -0.244892 -0.921963 2.19855e+18 7.67623e+13 0 3.83811e+14 1.38172e+15 1.53525e+14 
581 0 144.345 2.21605e+18 269.873 154.422 140.501 7467.96 1.19774 1.31572 2.21098e+18 0 0 1.2282e+15 3.60783e+15 2.30287e+14 
689 0 145.21 2.22933e+18 146.486 138.486 136.849 7478.22 -1.82928 1.54516 2.22918e+18 0 0 7.67623e+13 7.67623e+13 0 
693 0 145.305 2.23079e+18 160.777 138.533 136.661 7477.43 0.199344 2.82393 2.23025e+18 0 0 0 5.37336e+14 0 
697 0 143.655 2.20546e+18 155.47 143.891 135.942 7477.53 0.634974 -0.128835 2.205e+18 0 0 0 3.83811e+14 7.67623e+13 
701 0 143.55 2.20385e+18 163.908 139.947 137.518 7476.2 0.619993 0.702968 2.20323e+18 0 0 2.30287e+14 3.83811e+14 0 
705 0 143.465 2.20254e+18 144.436 141.35 138.264 7476.03 -0.869667 0.549176 2.20185e+18 0 0 1.53525e+14 4.60574e+14 7.67623e+13 
709 0 144.725 2.22188e+18 175.71 139.788 136.264 7477.74 -0.721419 0.202538 2.22081e+18 0 0 1.53525e+14 9.21147e+14 0 
713 0 144.63 2.22043e+18 217.939 141.306 139.203 7472.84 0.822956 -1.10055 2.21743e+18 0 0 5.37336e+14 2.30287e+15 1.53525e+14 
717 0 144.075 2.21191e+18 240.613 145.661 137.87 7470.82 -0.196106 0.939863 2.20837e+18 7.67623e+13 0 9.21147e+14 2.37963e+15 1.53525e+14 
825 0 143.795 2.20761e+18 144.979 136.96 136.536 7476.76 -0.870381 -0.780681 2.20745e+18 0 0 0 1.53525e+14 0 
829 0 143.985 2.21052e+18 137.296 138.02 135.879 7476.47 -1.06695 -1.02552 2.21045e+18 0 0 7.67623e+13 0 0 
833 0 144.405 2.21697e+18 148.635 137.447 136.712 7477.19 -0.970045 0.865581 2.21666e+18 0 0 0 3.07049e+14 0 
837 0 144.28 2.21505e+18 149.569 137.466 137.24 7476.63 0.541335 0.753582 2.2149e+18 0 0 0 1.53525e+14 0 
841 0 144.37 2.21643e+18 141.177 137.466 136.193 7478.32 -0.229619 -0.117284 2.2162e+18 0 0 0 2.30287e+14 0 
845 0 143.48 2.20277e+18 160.297 143.456 136.992 7476.23 1.68767 1.37887 2.20185e+18 0 0 1.53525e+14 7.67623e+14 0 
849 0 145.51 2.23394e+18 208.367 143.556 137.439 7472.11 0.855271 2.15082 2.23094e+18 0 0 3.83811e+14 2.22611e+15 3.83811e+14 
853 0 143.855 2.20853e+18 231.458 141.988 136.753 7474.03 1.0495 0.162219 2.20492e+18 0 0 8.44385e+14 2.68668e+15 7.67623e+13 
961 0 144.49 2.21828e+18 137.614 138.2 136.99 7475.57 1.08296 0.248626 2.21828e+18 0 0 0 0 0 
965 0 143.14 2.19755e+18 148.815 137.914 136.272 7476 -0.0904574 -0.843816 2.19709e+18 0 0 0 3.83811e+14 7.67623e+13 
969 0 143.94 2.20983e+18 162.496 136.749 137.682 7475.75 -0.408263 0.628125 2.2093e+18 0 0 7.67623e+13 4.60574e+14 0 
973 0 145.13 2.2281e+18 162.907 140.31 138.507 7476.76 0.813005 -0.343921 2.22749e+18 0 0 0 6.14098e+14 0 
977 0 145.905 2.24e+18 155.175 137.833 137.01 7478.03 0.231957 -0.281296 2.23954e+18 0 0 0 3.07049e+14 1.53525e+14 
981 0 144.29 2.21521e+18 161.174 139.18 137.238 7474.83 -0.309234 0.920199 2.21405e+18 0 0 2.30287e+14 9.21147e+14 0 
985 0 144.25 2.21459e+18 195.472 145.661 137.819 7474.9 -0.850155 -0.748209 2.21237e+18 0 0 6.14098e+14 1.61201e+15 0 
989 0 145.495 2.23371e+18 236.375 145.588 138.462 7472.01 0.146309 -0.0230526 2.23025e+18 0 0 6.14098e+14 2.68668e+15 1.53525e+14 
993 0 144.63 2.22043e+18 272.868 151.504 139.825 7469.4 -0.712189 -0.0265814 2.21436e+18 7.67623e+13 0 1.76553e+15 4.0684e+15 1.53525e+14 
1097 0 143.51 2.20323e+18 146.78 138.441 136.6 7477.54 0.058582 1.50368 2.20308e+18 0 0 0 1.53525e+14 0 
1101 0 143.62 2.20492e+18 137.117 135.553 136.603 7477.12 0.958978 1.70928 2.20492e+18 0 0 0 0 0 
1105 0 144.33 2.21582e+18 145.741 141.727 136.63 7476.52 -0.623191 0.668967 2.21559e+18 0 0 0 2.30287e+14 0 
1109 0 143.255 2.19932e+18 138.994 139.067 136.454 7477.01 0.742822 -0.242088 2.19901e+18 0 0 1.53525e+14 1.53525e+14 0 
1113 0 143.95 2.20999e+18 170.431 139.446 137.059 7476.74 -1.01471 -0.686854 2.20906e+18 0 0 3.07049e+14 6.14098e+14 0 
1117 0 145.075 2.22726e+18 157.657 138.408 136.602 7476.39 -0.842541 -0.908199 2.22657e+18 0 0 1.53525e+14 5.37336e+14 0 
1121 0 144.715 2.22173e+18 148.99 139.083 136.929 7477.3 -0.535224 0.228056 2.22096e+18 0 0 1.53525e+14 6.14098e+14 0 
1125 0 142.555 2.18857e+18 183.214 141.213 137.603 7474.54 -1.15945 0.936451 2.18688e+18 0 0 3.83811e+14 1.30496e+15 0 
1129 0 145.485 2.23355e+18 256.781 146.691 137.834 7470.45 1.90733 -1.03113 2.22841e+18 0 0 1.07467e+15 4.0684e+15 0 
1237 0 144.925 2.22495e+18 142.01 138.232 137.046 7477.34 -1.95529 0.330402 2.22488e+18 0 0 0 7.67623e+13 0 
1241 0 143.725 2.20653e+18 138.524 138.4 135.759 7475.97 0.251271 -1.24877 2.20638e+18 0 0 7.67623e+13 7.67623e+13 0 
1245 0 143.915 2.20945e+18 149.718 138.683 136.796 7477.17 -0.290162 1.29732 2.20899e+18 0 0 7.67623e+13 3.83811e+14 0 
1249 0 144.855 2.22388e+18 140.763 136.845 137.497 7476.4 -1.22414 0.0032856 2.22365e+18 0 0 0 2.30287e+14 0 
1253 0 144.47 2.21797e+18 161.563 137.97 136.267 7475.13 1.48632 -0.593748 2.21697e+18 0 0 7.67623e+13 8.44385e+14 7.67623e+13 
1257 0 143.68 2.20584e+18 168.359 139.813 135.805 7475.82 0.204492 -1.62964 2.204e+18 0 0 5.37336e+14 1.15143e+15 1.53525e+14 
1261 0 144.235 2.21436e+18 192.401 147.239 137.746 7473.47 0.853176 0.363008 2.21244e+18 0 0 4.60574e+14 1.45848e+15 0 
1265 0 143.71 2.2063e+18 247.457 139.547 138.222 7470.82 0.347753 -0.189888 2.20239e+18 0 0 5.37336e+14 3.37754e+15 0 
1373 0 143.72 2.20645e+18 142.119 135.836 136.756 7475.61 -0.861848 0.575169 2.20638e+18 0 0 0 7.67623e+13 0 
1377 0 143.555 2.20392e+18 147.053 136.274 136.479 7476.96 0.795238 0.341503 2.20377e+18 0 0 0 1.53525e+14 0 
1381 0 145.03 2.22657e+18 152.717 137.178 136.09 7474.96 0.291481 -0.523958 2.22618e+18 0 0 0 3.83811e+14 0 
1385 0 144.51 2.21858e+18 148.721 137.957 136.745 7476.58 0.454782 1.31592 2.21789e+18 0 0 2.30287e+14 4.60574e+14 0 
1389 0 143.635 2.20515e+18 154.302 139.904 137.015 7476.66 -0.531062 0.839256 2.20423e+18 0 0 1.53525e+14 7.67623e+14 0 
1393 0 144.785 2.22281e+18 158.364 143.858 138.498 7475.02 0.96186 -0.175681 2.22165e+18 7.67623e+13 0 3.83811e+14 6.14098e+14 7.67623e+13 
1397 0 145.07 2.22718e+18 185.344 142.015 136.992 7475.42 0.090803 1.92984 2.22542e+18 0 0 5.37336e+14 1.07467e+15 1.53525e+14 
1401 0 145.425 2.23263e+18 210.445 141.709 136.887 7474.09 0.0797491 0.830252 2.22964e+18 7.67623e+13 0 4.60574e+14 2.30287e+15 1.53525e+14 
1509 0 144.285 2.21513e+18 136.541 137.402 135.913 7476.31 0.0123236 -0.971846 2.21513e+18 0 0 0 0 0 
1513 0 143.68 2.20584e+18 138.207 136.286 136.7 7478.22 -1.93813 -0.820637 2.20584e+18 0 0 0 0 0 
1517 0 144.72 2.22181e+18 140.705 137.921 137.535 7477.47 -0.19876 0.293256 2.22173e+18 0 0 0 7.67623e+13 0 
1521 0 144.835 2.22357e+18 149.655 136.617 135.942 7476.8 1.237 0.721466 2.22327e+18 0 0 0 3.07049e+14 0 
1525 0 143.085 2.19671e+18 167.013 137.291 135.883 7477.21 -1.60516 0.120573 2.19586e+18 0 0 7.67623e+13 6.90861e+14 7.67623e+13 
1529 0 142.72 2.1911e+18 195.405 141.082 136.965 7473.43 -1.41277 0.0571169 2.18972e+18 0 0 3.83811e+14 9.9791e+14 0 
1533 0 144.25 2.21459e+18 191.435 141.977 136.692 7474.1 1.91244 0.791065 2.21229e+18 0 0 4.60574e+14 1.84229e+15 0 
1537 0 145.605 2.23539e+18 217.102 142.441 137.163 7473.62 -1.89445 0.193815 2.23271e+18 0 0 4.60574e+14 2.22611e+15 0 
1541 0 144.465 2.21789e+18 271.043 153.819 137.821 7469.66 1.458 -0.321465 2.21267e+18 0 0 1.45848e+15 3.60783e+15 1.53525e+14 
1645 0 144.14 2.2129e+18 137.108 137.936 136.483 7477.69 -0.582178 0.587287 2.2129e+18 0 0 0 0 0 
1649 0 143.76 2.20707e+18 143.143 136.66 136.446 7477.22 -0.726901 -0.0565309 2.20699e+18 0 0 0 7.67623e+13 0 
1653 0 145.39 2.23209e+18 151.964 138.133 136.552 7475.95 -0.167673 -0.917625 2.23171e+18 0 0 0 3.07049e+14 7.67623e+13 
1657 0 143.82 2.20799e+18 146.145 138.702 136.325 7476.75 -0.577765 -0.146193 2.20768e+18 0 0 7.67623e+13 2.30287e+14 0 
1661 0 144.425 2.21728e+18 149.564 137.987 136.073 7475.58 -0.872147 0.174553 2.21666e+18 0 0 2.30287e+14 3.07049e+14 7.67623e+13 
1665 0 145.415 2.23248e+18 161.504 137.747 135.797 7476.48 -0.847699 -0.786884 2.23194e+18 0 0 7.67623e+13 4.60574e+14 0 
1669 0 144.815 2.22327e+18 171.271 144.059 136.763 7475.4 -0.44149 -2.20435 2.22196e+18 0 0 1.53525e+14 1.07467e+15 7.67623e+13 
1673 0 144.345 2.21605e+18 199.63 145.685 137.932 7474.32 0.947542 -0.966181 2.21359e+18 0 0 6.90861e+14 1.76553e+15 0 
1677 0 144.81 2.22319e+18 231.926 149.32 139.341 7472.58 1.86117 -0.99114 2.21912e+18 0 0 1.30496e+15 2.68668e+15 7.67623e+13 
1785 0 143.17 2.19801e+18 141.518 137.439 136.491 7476.45 1.02886 -1.50012 2.19793e+18 0 0 0 7.67623e+13 0 
1789 0 144.555 2.21927e+18 145.223 137.705 136.688 7476.7 1.72628 0.290697 2.21912e+18 0 0 0 7.67623e+13 7.67623e+13 
1793 0 144.085 2.21206e+18 140.633 137.542 136.201 7475.96 -0.249752 0.917074 2.21183e+18 0 0 0 7.67623e+13 1.53525e+14 
1797 0 145.18 2.22887e+18 143.997 137.736 136.58 7477.08 0.413833 0.089329 2.22826e+18 0 0 1.53525e+14 4.60574e+14 0 
1801 0 145.06 2.22703e+18 150.848 138.185 136.048 7476.11 0.449452 0.171984 2.22626e+18 0 0 7.67623e+13 6.14098e+14 7.67623e+13 
1805 0 145.92 2.24023e+18 173.031 139.099 136.463 7475.95 0.194027 1.20577 2.23923e+18 0 0 2.30287e+14 7.67623e+14 0 
1809 0 144.52 2.21874e+18 169.771 141.255 138.974 7475.9 0.898709 -1.14269 2.21689e+18 0 0 6.14098e+14 1.15143e+15 7.67623e+13 
1813 0 144.805 2.22311e+18 243.821 145.595 137.379 7470.79 0.0565605 0.748861 2.21958e+18 0 0 1.2282e+15 2.22611e+15 7.67623e+13 
1921 0 143.795 2.20761e+18 136.91 136.984 137.532 7476.59 -0.768868 0.00472834 2.20761e+18 0 0 0 0 0 
1925 0 144.35 2.21613e+18 141.321 137.589 136.87 7476.96 -1.16431 -0.146409 2.21597e+18 0 0 0 1.53525e+14 0 
1929 0 143.71 2.2063e+18 137.862 136.03 135.687 7475.34 0.41653 0.170301 2.2063e+18 0 0 0 0 0 
1933 0 144.155 2.21313e+18 140.256 138.128 136.87 7476.37 -1.9518 1.24282 2.21298e+18 0 0 0 1.53525e+14 0 
1937 0 145.265 2.23017e+18 170.934 142.397 137.548 7475.14 -0.125271 1.1562 2.22879e+18 0 0 5.37336e+14 7.67623e+14 7.67623e+13 
1941 0 143.54 2.20369e+18 159.886 139.216 136.589 7475.76 -0.367427 0.287369 2.20292e+18 0 0 2.30287e+14 5.37336e+14 0 
1945 0 144.44 2.21751e+18 170.731 145.206 137.264 7474.8 2.06189 -0.370088 2.2159e+18 0 0 5.37336e+14 9.9791e+14 7.67623e+13 
1949 0 143.945 2.20991e+18 241.179 147.815 138.291 7469.69 1.39319 0.0126912 2.20477e+18 0 0 1.30496e+15 3.76135e+15 7.67623e+13 
2057 0 143.97 2.21029e+18 138.383 138.358 137.46 7477.07 0.413635 0.0172966 2.21022e+18 0 0 0 7.67623e+13 0 
2061 0 143.64 2.20523e+18 141.162 137.46 136.683 7477.98 0.848438 -0.102176 2.20515e+18 0 0 0 7.67623e+13 0 
2065 0 144.44 2.21751e+18 145.665 138.296 136.808 7477.53 0.568032 1.34176 2.21751e+18 0 0 0 0 0 
2069 0 143.855 2.20853e+18 143.228 137.245 136.816 7477.51 -0.0150113 0.809743 2.2083e+18 0 0 0 2.30287e+14 0 
2073 0 144.14 2.2129e+18 155.73 138.515 138.244 7476.79 0.508067 -0.267419 2.21206e+18 0 0 2.30287e+14 4.60574e+14 1.53525e+14 
2077 0 144.82 2.22334e+18 163.226 138.974 137.604 7476.35 -1.19223 1.70788 2.22258e+18 0 0 2.30287e+14 5.37336e+14 0 
2081 0 144.215 2.21405e+18 187.955 139.765 137.447 7474.13 0.0250081 0.31745 2.21198e+18 0 0 4.60574e+14 1.53525e+15 7.67623e+13 
2085 0 144.58 2.21966e+18 213.73 143.912 138.072 7471.57 0.933337 2.02953 2.2162e+18 0 0 9.9791e+14 2.30287e+15 1.53525e+14 
2089 0 144.615 2.2202e+18 279.479 147.555 139.247 7469.78 1.46927 1.41554 2.21475e+18 7.67623e+13 0 1.2282e+15 4.0684e+15 7.67623e+13 
2193 0 144.56 2.21935e+18 137.367 138.725 137.021 7477.2 0.292176 1.03468 2.21935e+18 0 0 0 0 0 
2197 0 144.285 2.21513e+18 145.504 138.222 136.63 7476.09 -0.433146 0.869864 2.21498e+18 0 0 0 1.53525e+14 0 
2201 0 143.78 2.20738e+18 150.764 137.659 136.705 7477.49 0.423188 0.636884 2.20715e+18 0 0 0 2.30287e+14 0 
2205 0 144.175 2.21344e+18 159.091 137.649 135.75 7476.88 0.0621361 0.53092 2.2129e+18 0 0 0 4.60574e+14 7.67623e+13 
2209 0 144.785 2.22281e+18 138.278 138.477 136.349 7476.97 0.341599 2.16961 2.22258e+18 0 0 1.53525e+14 7.67623e+13 0 
2213 0 143.6 2.20461e+18 158.699 139.979 138.152 7475.19 -0.0816889 -0.843581 2.204e+18 0 0 2.30287e+14 3.83811e+14 0 
2217 0 145.01 2.22626e+18 181.396 138.909 136.456 7476.64 2.14175 2.13512 2.22495e+18 0 0 7.67623e+13 1.15143e+15 7.67623e+13 
2221 0 145.06 2.22703e+18 185.396 140.542 136.884 7475.74 0.20382 0.471943 2.22434e+18 0 0 5.37336e+14 1.91906e+15 2.30287e+14 
2225 0 144.945 2.22526e+18 225.447 143.71 136.651 7472.49 0.0836567 -0.12634 2.22188e+18 7.67623e+13 0 6.14098e+14 2.53316e+15 1.53525e+14 
2333 0 144.11 2.21244e+18 144.113 137.163 136.469 7477.52 -0.176104 1.48592 2.21229e+18 0 0 0 1.53525e+14 0 
2337 0 144.07 2.21183e+18 143.613 137.646 136.248 7476.54 -0.0418852 -1.28762 2.21167e+18 0 0 0 1.53525e+14 0 
2341 0 144.1 2.21229e+18 137.896 137.247 136.775 7477.82 0.44241 -1.52873 2.21221e+18 0 0 0 7.67623e+13 0 
2345 0 144.11 2.21244e+18 153.543 139.118 136.398 7475.47 0.285176 1.36669 2.21206e+18 0 0 7.67623e+13 3.07049e+14 0 
2349 0 143.76 2.20707e+18 144.217 136.643 136.635 7476.39 -0.228114 -1.47988 2.20676e+18 0 0 7.67623e+13 2.30287e+14 0 
2353 0 144.64 2.22058e+18 171.406 138.528 136.151 7474.93 1.16441 -0.239315 2.2195e+18 0 0 2.30287e+14 7.67623e+14 7.67623e+13 
2357 0 144.345 2.21605e+18 175.015 139.685 136.515 7472.96 -0.145918 0.0378017 2.21398e+18 0 0 2.30287e+14 1.68877e+15 1.53525e+14 
2361 0 146.555 2.24998e+18 214.812 142.89 137.344 7473.83 0.364483 0.49864 2.2466e+18 0 0 7.67623e+14 2.45639e+15 1.53525e+14 
2469 0 144.07 2.21183e+18 137.688 137.605 136.8 7478.16 1.56047 -0.766356 2.21183e+18 0 0 0 0 0 
2473 0 144.39 2.21674e+18 149.908 137.063 135.888 7477.55 -1.03293 -1.9512 2.21636e+18 0 0 0 3.07049e+14 7.67623e+13 
2477 0 144.42 2.2172e+18 156.966 138.546 137.319 7476.05 -1.54853 -0.782817 2.21689e+18 0 0 1.53525e+14 1.53525e+14 0 
2481 0 144.37 2.21643e+18 152.278 139.276 136.679 7476.92 0.98891 -2.17939 2.21567e+18 0 0 1.53525e+14 6.14098e+14 0 
2485 0 143.125 2.19732e+18 145.937 138.71 136.092 7477.43 -1.02532 -0.521406 2.19709e+18 0 0 0 2.30287e+14 0 
2489 0 144.635 2.2205e+18 165.998 136.28 136.69 7476.68 0.118379 1.49808 2.21973e+18 0 0 0 7.67623e+14 0 
2493 0 144.625 2.22035e+18 175.985 139.393 137.091 7475.27 0.426963 0.048894 2.21874e+18 0 0 3.83811e+14 1.2282e+15 0 
2497 0 144.03 2.21121e+18 212.954 139.44 136.893 7471.89 1.60697 -0.14092 2.20799e+18 0 0 6.14098e+14 2.60992e+15 0 
2605 0 144.9 2.22457e+18 140.443 137.625 136.385 7477.27 -0.792561 -0.105984 2.22442e+18 0 0 0 7.67623e+13 7.67623e+13 
2609 0 144.415 2.21712e+18 141.651 137.806 135.653 7476.62 -0.258307 2.15722 2.21705e+18 0 0 0 7.67623e+13 0 
2613 0 143.365 2.201e+18 141.999 139.35 136.14 7476.32 1.06476 1.25938 2.20085e+18 0 0 0 1.53525e+14 0 
2617 0 143.855 2.20853e+18 144.61 136.794 135.598 7477.82 -1.76441 -1.10171 2.20814e+18 0 0 7.67623e+13 3.07049e+14 0 
2621 0 144.135 2.21283e+18 145.051 137.911 136.328 7476.9 0.890152 0.225658 2.21244e+18 0 0 7.67623e+13 3.07049e+14 0 
2625 0 145.34 2.23133e+18 168.196 137.139 136.947 7475.85 1.00342 0.772517 2.23056e+18 0 0 0 7.67623e+14 0 
2629 0 143.705 2.20622e+18 195.87 139.864 137.679 7474.57 -0.813366 -0.881476 2.20438e+18 7.67623e+13 0 3.07049e+14 1.38172e+15 7.67623e+13 
2633 0 144.485 2.2182e+18 181.487 139.073 136.832 7475.63 0.333313 -0.309781 2.2162e+18 0 0 3.07049e+14 1.68877e+15 0 
2637 0 144.435 2.21743e+18 226.564 149.128 137.018 7471.43 -0.0756779 -0.311901 2.21344e+18 0 0 8.44385e+14 2.99373e+15 1.53525e+14 
2741 0 144.64 2.22058e+18 143.25 138.883 136.779 7476.61 -0.504105 1.55737 2.22027e+18 0 0 7.67623e+13 2.30287e+14 0 
2745 0 144.67 2.22104e+18 138.357 137.239 137.152 7476.88 -0.321297 0.426665 2.22096e+18 0 0 0 7.67623e+13 0 
2749 0 143.415 2.20177e+18 145.466 137.671 136.13 7475.28 -0.382228 0.647519 2.20147e+18 0 0 0 3.07049e+14 0 
2753 0 144.475 2.21805e+18 142.245 138.949 136.684 7477.76 0.314117 1.30566 2.21789e+18 0 0 0 1.53525e+14 0 
2757 0 145.26 2.2301e+18 149.665 137.57 136.348 7476.46 0.600843 0.962765 2.22964e+18 0 0 0 4.60574e+14 0 
2761 0 143.5 2.20308e+18 156.471 138.42 137.033 7474.79 -0.601434 0.951791 2.20239e+18 0 0 2.30287e+14 4.60574e+14 0 
2765 0 144.63 2.22043e+18 176.354 139.465 137.271 7475.2 2.32508 -0.0184331 2.21889e+18 0 0 2.30287e+14 1.15143e+15 1.53525e+14 
2769 0 143.805 2.20776e+18 182.381 139.264 136.437 7474.75 0.820813 0.740119 2.20592e+18 0 0 4.60574e+14 1.2282e+15 1.53525e+14 
2773 0 145.895 2.23985e+18 217.255 141.325 137.537 7472.65 0.410555 1.31993 2.23685e+18 0 0 7.67623e+14 2.22611e+15 0 
2881 0 144.035 2.21129e+18 145.188 138.333 136.875 7478.89 1.33001 0.492504 2.21098e+18 0 0 7.67623e+13 1.53525e+14 7.67623e+13 
2885 0 143.675 2.20576e+18 148.926 137.308 135.942 7476.63 1.13401 0.462656 2.20553e+18 0 0 7.67623e+13 1.53525e+14 0 
2889 0 144.23 2.21428e+18 142.253 137.122 136.593 7475.75 0.573117 -2.46774 2.21421e+18 0 0 0 7.67623e+13 0 
2893 0 144.47 2.21797e+18 141.379 138.587 136.38 7476.49 -1.04545 -0.00276573 2.21759e+18 0 0 0 3.07049e+14 7.67623e+13 
2897 0 144.01 2.21091e+18 149.827 137.863 135.806 7476.14 0.389872 -1.85404 2.21052e+18 0 0 1.53525e+14 2.30287e+14 0 
2901 0 145.02 2.22641e+18 161.151 135.829 136.861 7477.08 -0.197312 -1.94662 2.22557e+18 0 0 7.67623e+13 7.67623e+14 0 
2905 0 144.435 2.21743e+18 181.203 143.435 136.693 7474.65 0.0212176 -0.0539746 2.21574e+18 0 0 2.30287e+14 1.38172e+15 7.67623e+13 
2909 0 143.755 2.20699e+18 185.729 144.432 138.466 7472.65 -1.19004 -0.610366 2.20469e+18 0 0 4.60574e+14 1.76553e+15 7.67623e+13 
3017 0 144.415 2.21712e+18 140.848 136.719 135.946 7478.15 -0.478852 0.861603 2.21705e+18 0 0 0 7.67623e+13 0 
3021 0 144.46 2.21782e+18 136.209 139.533 136.232 7477.46 -2.01331 -0.252874 2.21782e+18 0 0 0 0 0 
3025 0 144.31 2.21551e+18 140.128 138.083 136.914 7477.04 0.816087 -0.744926 2.21528e+18 0 0 7.67623e+13 1.53525e+14 0 
3029 0 145.525 2.23417e+18 149.432 137.276 136.418 7476.44 -0.691911 1.69003 2.23378e+18 0 0 0 3.83811e+14 0 
3033 0 145.13 2.2281e+18 162.58 139.804 136.953 7476.58 -2.81325 -0.435489 2.22726e+18 0 0 1.53525e+14 6.14098e+14 7.67623e+13 
3037 0 145.07 2.22718e+18 155.173 136.495 137.332 7476.38 0.639251 0.231993 2.22641e+18 0 0 0 7.67623e+14 0 
3041 0 145.805 2.23846e+18 193.955 140.621 137.525 7474.4 -0.579914 0.303882 2.23662e+18 7.67623e+13 0 3.07049e+14 1.45848e+15 0 
3045 0 145.28 2.2304e+18 200.12 142.585 137.964 7474.1 0.31609 -0.0303061 2.22749e+18 0 0 6.90861e+14 2.14934e+15 7.67623e+13 
3153 0 143.925 2.2096e+18 137.378 136.223 136.802 7479.37 0.993315 0.350377 2.2096e+18 0 0 0 0 0 
3157 0 144.335 2.2159e+18 141.94 137.521 136.655 7478.98 -0.32403 0.376097 2.21582e+18 0 0 0 7.67623e+13 0 
3161 0 143.195 2.19839e+18 137.486 138.213 136.194 7477.49 -1.29737 2.64994 2.19839e+18 0 0 0 0 0 
3165 0 142.85 2.1931e+18 144.135 136.711 136.377 7477.9 -0.812605 1.14273 2.19287e+18 0 0 0 2.30287e+14 0 
3169 0 143.745 2.20684e+18 152.237 139.003 136.89 7477.75 -0.00451886 -0.454614 2.20622e+18 0 0 0 6.14098e+14 0 
3173 0 144.115 2.21252e+18 169.846 140.831 136.279 7478.19 -0.628276 -0.1339 2.2116e+18 0 0 0 7.67623e+14 1.53525e+14 
3177 0 142.97 2.19494e+18 156.058 138.504 135.973 7477.15 0.33338 1.53102 2.1941e+18 0 0 2.30287e+14 6.14098e+14 0 
3181 0 144.55 2.2192e+18 185.981 142.84 137.027 7475.44 0.75201 -0.253851 2.21712e+18 0 0 6.14098e+14 1.45848e+15 0 
3185 0 143.535 2.20361e+18 197.07 145.374 138.804 7475.83 -0.900775 0.896581 2.20085e+18 0 0 7.67623e+14 1.91906e+15 7.67623e+13 
3289 0 144.8 2.22304e+18 137.638 138.001 136.388 7477.83 0.281341 0.760694 2.22304e+18 0 0 0 0 0 
3293 0 144.46 2.21782e+18 138.217 140.719 136.209 7477 1.17078 1.11359 2.21774e+18 0 0 7.67623e+13 0 0 
3297 0 144.31 2.21551e+18 138.966 137.129 135.608 7478.27 -1.27317 -0.521886 2.21536e+18 0 0 0 1.53525e+14 0 
3301 0 144.29 2.21521e+18 140.357 139.401 135.618 7477.1 0.600445 -0.716441 2.21521e+18 0 0 0 0 0 
3305 0 144.505 2.21851e+18 144.809 140.328 136.415 7477.63 -2.09836 0.345805 2.21828e+18 0 0 0 2.30287e+14 0 
3309 0 144.95 2.22534e+18 155.959 137.072 136.438 7478.84 -0.830331 -0.94338 2.22465e+18 0 0 1.53525e+14 5.37336e+14 0 
3313 0 144.61 2.22012e+18 176.331 139.102 136.643 7475.37 0.131297 -1.43227 2.21904e+18 0 0 3.07049e+14 7.67623e+14 0 
3317 0 144.005 2.21083e+18 188.064 142.152 137.799 7475.18 -1.72861 0.399152 2.20906e+18 0 0 3.07049e+14 1.45848e+15 0 
3321 0 144.515 2.21866e+18 219.935 143.257 138.047 7473.83 0.357972 -0.401446 2.21574e+18 7.67623e+13 0 5.37336e+14 2.22611e+15 7.67623e+13 
3429 0 143.46 2.20246e+18 137.171 137.331 135.625 7477.97 -0.675259 -0.715657 2.20246e+18 0 0 0 0 0 
3433 0 144.27 2.2149e+18 141.526 137.434 135.842 7476.69 -2.31411 2.04385 2.21482e+18 0 0 0 7.67623e+13 0 
3437 0 145.155 2.22849e+18 140.283 136.963 137.372 7477.57 -1.40013 -0.779197 2.22833e+18 0 0 7.67623e+13 7.67623e+13 0 
3441 0 144.125 2.21267e+18 140.578 136.422 135.978 7478.86 0.712309 -0.499867 2.21252e+18 0 0 7.67623e+13 7.67623e+13 0 
3445 0 144.48 2.21812e+18 151.58 141.618 136.435 7477.51 -0.954944 0.759756 2.21766e+18 0 0 7.67623e+13 3.83811e+14 0 
3449 0 143.72 2.20645e+18 164.326 137.094 137.455 7476.73 -0.255575 -0.102396 2.20569e+18 0 0 1.53525e+14 6.14098e+14 0 
3453 0 143.695 2.20607e+18 163.079 136.689 136.222 7476.53 0.190241 0.413985 2.20492e+18 0 0 7.67623e+13 9.21147e+14 1.53525e+14 
3457 0 145.22 2.22948e+18 188.151 142.713 136.645 7476.76 -0.564294 1.46565 2.22657e+18 0 0 6.90861e+14 2.14934e+15 7.67623e+13 
3565 0 143.7 2.20615e+18 139.954 138.311 136.842 7476.37 -0.537398 -0.867607 2.20607e+18 0 0 0 7.67623e+13 0 
3569 0 144.68 2.22119e+18 139.407 137.823 136.856 7475.48 -0.368215 -0.983847 2.22112e+18 0 0 0 7.67623e+13 0 
3573 0 145.155 2.22849e+18 141.871 138.874 137.46 7478.64 0.19105 -0.557538 2.22833e+18 0 0 0 1.53525e+14 0 
3577 0 144.435 2.21743e+18 142.949 139.295 136.778 7476.29 0.687509 0.344036 2.21705e+18 0 0 1.53525e+14 2.30287e+14 0 
3581 0 144.13 2.21275e+18 158.318 138.631 137.34 7475.49 -2.77997 0.263336 2.21214e+18 0 0 0 6.14098e+14 0 
3585 0 143.12 2.19724e+18 143.84 135.372 137.23 7478.16 -1.36216 0.00742952 2.19686e+18 0 0 7.67623e+13 3.07049e+14 0 
3589 0 144.955 2.22542e+18 169.303 140.754 136.932 7474.06 1.07826 1.17372 2.22396e+18 0 0 4.60574e+14 9.9791e+14 0 
3593 0 144.44 2.21751e+18 193.433 143.225 138.882 7474.47 -0.50649 0.132522 2.21528e+18 0 0 3.83811e+14 1.84229e+15 0 
3701 0 144.61 2.22012e+18 137.974 137.459 136.052 7477.31 -0.356004 0.0131507 2.21997e+18 0 0 0 1.53525e+14 0 
3705 0 144.4 2.21689e+18 148.805 136.381 135.235 7476.98 -0.747065 -0.149781 2.21659e+18 0 0 0 3.07049e+14 0 
3709 0 145.095 2.22756e+18 147.808 137.778 136.505 7476.99 -0.57907 0.467654 2.22718e+18 0 0 0 3.83811e+14 0 
3713 0 144.22 2.21413e+18 142.386 141.371 136.734 7476.01 -1.56123 0.748694 2.21344e+18 7.67623e+13 0 2.30287e+14 3.83811e+14 0 
3717 0 144.595 2.21989e+18 154.168 140.509 137.431 7476.83 -1.79996 0.388241 2.21897e+18 0 0 3.07049e+14 6.14098e+14 0 
3721 0 143.735 2.20669e+18 150.887 142.183 137.701 7475.55 0.126172 0.250007 2.20546e+18 0 0 6.14098e+14 6.14098e+14 0 
3725 0 144.49 2.21828e+18 154.384 136.096 136.679 7477.79 0.396906 0.385158 2.21759e+18 0 0 0 6.90861e+14 0 
3729 0 143.29 2.19985e+18 201.847 140.487 137.291 7474.51 -0.764632 0.431047 2.19778e+18 0 0 3.83811e+14 1.61201e+15 7.67623e+13 
3733 0 144.365 2.21636e+18 194.109 140.545 137.53 7473.61 1.50208 -1.31317 2.2139e+18 0 0 6.14098e+14 1.84229e+15 0 
3837 0 144.16 2.21321e+18 142.471 138.592 136.414 7476.23 0.293187 -0.742873 2.21313e+18 0 0 0 7.67623e+13 0 
3841 0 144.79 2.22288e+18 136.887 139.062 136.851 7478.33 -1.38851 0.788805 2.22288e+18 0 0 0 0 0 
3845 0 144.64 2.22058e+18 141.558 138.136 136.817 7477.75 -0.313887 -0.414741 2.22027e+18 0 0 7.67623e+13 2.30287e+14 0 
3849 0 144.15 2.21306e+18 149.912 147.387 137.013 7476.34 -0.789341 -0.56358 2.21244e+18 0 0 3.83811e+14 2.30287e+14 0 
3853 0 144.03 2.21121e+18 168.811 142.158 137.17 7476.97 0.399421 -0.980987 2.20991e+18 0 0 3.07049e+14 9.9791e+14 0 
3857 0 144.32 2.21567e+18 152.538 140.641 137.512 7476.22 -0.250753 -0.921924 2.21475e+18 0 0 2.30287e+14 6.14098e+14 7.67623e+13 
3861 0 143.145 2.19763e+18 161.153 141.678 136.906 7474.93 0.866159 -0.605515 2.19632e+18 0 0 2.30287e+14 1.07467e+15 0 
3865 0 144.57 2.2195e+18 163.566 140.176 136.717 7476.53 -0.011092 0.638629 2.21843e+18 0 0 2.30287e+14 8.44385e+14 0 
3869 0 144.52 2.21874e+18 191.438 141.684 137.224 7473.18 -0.166328 -1.63304 2.2159e+18 0 0 6.14098e+14 2.22611e+15 0 
3977 0 144.695 2.22142e+18 141.208 138.47 135.826 7477.79 -0.617279 0.206407 2.22135e+18 0 0 0 7.67623e+13 0 
3981 0 145.78 2.23808e+18 139.553 137.779 136.238 7477.86 -0.332496 0.991171 2.23793e+18 0 0 0 7.67623e+13 7.67623e+13 
3985 0 143.87 2.20876e+18 149.189 138.028 136.368 7477.85 0.447761 0.0927414 2.20853e+18 0 0 0 2.30287e+14 0 
3989 0 143.85 2.20845e+18 164.979 138.659 136.386 7476.39 0.634356 -1.1668 2.20776e+18 0 0 1.53525e+14 5.37336e+14 0 
3993 0 144.995 2.22603e+18 158.563 140.746 136.84 7477.39 0.828512 0.216375 2.22503e+18 0 0 3.07049e+14 6.14098e+14 7.67623e+13 