ITEM: TIMESTEP
14000
ITEM: NUMBER OF CELLS
10393
ITEM: BOX BOUNDS oo ao pp
-10 10
0 10
-0.5 0.5
ITEM: CELLS id proc f_avg_n f_avg_nrho f_avg_temp_tra f_avg_temp_rot f_avg_temp_vib f_avg_vel[1] f_avg_vel[2] f_avg_vel[3] f_avg_nrho_CO2 f_avg_nrho_O2 f_avg_nrho_C2 f_avg_nrho_CO f_avg_nrho_O f_avg_nrho_C 
1 0 145.05 2.22687e+18 136.661 137.403 136.096 7478.99 8.31582 1.33422 2.22687e+18 0 0 0 0 0 
5 0 153.75 2.36044e+18 140.472 137.531 137.132 7476.29 26.4856 -1.54057 2.36044e+18 0 0 0 0 0 
9 0 160.31 2.46115e+18 167.877 137.224 138.039 7476.54 35.1628 -0.215258 2.46085e+18 0 0 1.53525e+14 1.53525e+14 0 
13 0 162.28 2.4914e+18 142.414 138.419 138.297 7478.08 35.7256 -1.07432 2.49109e+18 0 0 0 3.07049e+14 0 
17 0 166.54 2.5568e+18 151.968 138.01 137.026 7477.54 31.2568 -0.770587 2.55588e+18 0 0 0 9.21147e+14 0 
21 0 164.27 2.52195e+18 154.605 138.36 136.254 7475.79 28.7511 -0.62953 2.52133e+18 0 0 1.53525e+14 4.60574e+14 0 
25 0 165.25 2.53699e+18 155.195 153.023 138.957 7476.81 17.6587 0.498547 2.53362e+18 0 0 1.38172e+15 1.99582e+15 0 
29 0 163.52 2.51043e+18 175.967 145.572 135.709 7474.03 16.8297 -3.20314 2.50782e+18 0 0 1.07467e+15 1.53525e+15 0 
33 0 159.46 2.4481e+18 315.695 140.994 136.396 7465.29 20.6438 -7.13778 2.44104e+18 0 0 6.14098e+14 6.29451e+15 1.53525e+14 
141 0 145.98 2.24115e+18 138.455 136.868 136.281 7476.71 -2.63565 0.97696 2.24115e+18 0 0 0 0 0 
145 0 144.28 2.21505e+18 139.466 139.635 135.405 7473.74 2.37394 -0.0226405 2.2149e+18 0 0 0 0 1.53525e+14 
149 0 145.52 2.23409e+18 138.549 138.37 136.756 7478.92 -1.68159 -0.352422 2.23394e+18 0 0 1.53525e+14 0 0 
153 0 144.23 2.21428e+18 140.141 139.872 136.571 7477.28 0.523759 0.481089 2.21382e+18 0 0 3.07049e+14 1.53525e+14 0 
157 0 145.3 2.23071e+18 190.736 139.504 136.918 7473.25 3.39658 0.854938 2.22964e+18 0 0 3.07049e+14 6.14098e+14 1.53525e+14 
161 0 146.54 2.24975e+18 239.51 138.434 138.604 7473.36 1.66205 0.421729 2.24714e+18 0 0 4.60574e+14 2.14934e+15 0 
165 0 146.23 2.24499e+18 202.172 139.083 137.382 7475.08 4.07776 -0.10751 2.24238e+18 0 0 3.07049e+14 2.30287e+15 0 
169 0 148.06 2.27308e+18 221.734 139.277 136.462 7471.8 2.62499 0.506427 2.26909e+18 0 0 6.14098e+14 3.37754e+15 0 
277 0 144.94 2.22518e+18 162.722 138.707 137.494 7478.03 -0.194 -0.32669 2.22472e+18 0 0 3.07049e+14 1.53525e+14 0 
281 0 144.86 2.22396e+18 175.501 140.768 135.746 7476.6 -0.519267 -2.62077 2.22319e+18 0 0 4.60574e+14 1.53525e+14 1.53525e+14 
285 0 143.2 2.19847e+18 166.563 138.717 136.075 7476.27 -3.43891 0.710502 2.19786e+18 0 0 3.07049e+14 3.07049e+14 0 
289 0 142.63 2.18972e+18 166.557 146.634 138.496 7475.09 1.48633 0.130737 2.18803e+18 0 0 1.07467e+15 6.14098e+14 0 
293 0 144.33 2.21582e+18 148.612 143.423 137.01 7477.92 -2.18906 -0.317293 2.21505e+18 0 0 3.07049e+14 4.60574e+14 0 
297 0 143.51 2.20323e+18 181.095 141.883 136.187 7476.18 -1.237 -0.227052 2.20108e+18 0 0 6.14098e+14 1.53525e+15 0 
301 0 144.78 2.22273e+18 236.559 144.169 137.731 7471.21 -0.423204 1.43422 2.21874e+18 0 0 7.67623e+14 3.22402e+15 0 
305 0 143.24 2.19909e+18 212.378 150.373 139.656 7471.81 1.50917 0.685013 2.19571e+18 0 0 1.07467e+15 2.30287e+15 0 
413 0 144.55 2.2192e+18 137.768 136.555 136.072 7477.56 0.632401 -1.16376 2.2192e+18 0 0 0 0 0 
417 0 144.46 2.21782e+18 146.716 138.448 136.15 7477.29 -1.58274 0.612605 2.21766e+18 0 0 0 1.53525e+14 0 
421 0 144.76 2.22242e+18 145.443 137.411 136.635 7478.72 0.0195024 0.584251 2.22242e+18 0 0 0 0 0 
425 0 143.89 2.20906e+18 145.333 138.952 138.08 7475.64 -0.106598 -1.72824 2.20845e+18 0 0 1.53525e+14 3.07049e+14 1.53525e+14 
429 0 143.68 2.20584e+18 180.075 147.625 136.712 7474.3 0.0393013 -2.77993 2.20354e+18 0 0 1.07467e+15 1.2282e+15 0 
433 0 145 2.22611e+18 212.317 141.561 135.912 7474.56 1.49834 -0.155206 2.22442e+18 0 0 4.60574e+14 1.2282e+15 0 
437 0 143.09 2.19678e+18 232.373 141.009 138.184 7471.94 0.857173 -1.85881 2.19371e+18 0 0 6.14098e+14 2.45639e+15 0 
441 0 143.84 2.2083e+18 242.351 150.577 136.822 7470.78 -0.578852 3.68723 2.20461e+18 0 0 9.21147e+14 2.76344e+15 0 
445 0 144.94 2.22518e+18 326.233 153.369 138.123 7468.15 -1.18787 -0.936941 2.21736e+18 0 0 1.99582e+15 5.52688e+15 3.07049e+14 
549 0 144.32 2.21567e+18 159.745 138.479 136.63 7476.97 0.0357145 0.182856 2.21536e+18 0 0 1.53525e+14 1.53525e+14 0 
553 0 142.76 2.19172e+18 144.266 138.707 134.977 7476.36 2.75112 0.411044 2.1911e+18 0 0 1.53525e+14 4.60574e+14 0 
557 0 144.03 2.21121e+18 152.647 140.839 136.389 7475.8 -1.52389 0.539685 2.21014e+18 0 0 4.60574e+14 6.14098e+14 0 
561 0 145.75 2.23762e+18 147.358 138.261 136.938 7476.58 2.57744 0.442326 2.23685e+18 0 0 0 6.14098e+14 1.53525e+14 
565 0 143.29 2.19985e+18 165.126 140.18 137.179 7476.83 1.81432 0.699496 2.19893e+18 0 0 1.53525e+14 7.67623e+14 0 
569 0 143.98 2.21045e+18 141.05 140.081 136.679 7477.4 -0.08962 0.494659 2.20983e+18 0 0 4.60574e+14 1.53525e+14 0 
573 0 143.98 2.21045e+18 176.952 142.341 137.19 7476.04 2.63332 0.416676 2.20814e+18 0 0 6.14098e+14 1.68877e+15 0 
577 0 143.32 2.20031e+18 170.424 143.949 140.082 7473.16 -0.326489 -0.510015 2.19878e+18 1.53525e+14 0 3.07049e+14 7.67623e+14 3.07049e+14 
581 0 144.37 2.21643e+18 274.815 151.412 139.025 7465.69 2.38579 1.45621 2.2126e+18 0 0 7.67623e+14 2.91697e+15 1.53525e+14 
689 0 145.67 2.23639e+18 146.198 137.084 138.223 7479.48 -0.00609529 1.06611 2.23624e+18 0 0 1.53525e+14 0 0 
693 0 145.2 2.22918e+18 177.567 137.713 136.705 7477.81 0.919914 3.24616 2.22826e+18 0 0 0 9.21147e+14 0 
697 0 144.05 2.21152e+18 166.207 138.007 136.162 7478 1.60311 0.142179 2.21075e+18 0 0 0 7.67623e+14 0 
701 0 143 2.1954e+18 155.734 137.773 138.727 7474.02 0.16905 0.332658 2.19494e+18 0 0 3.07049e+14 1.53525e+14 0 
705 0 142.49 2.18757e+18 140.137 138.567 137.462 7477.87 -0.261653 0.9454 2.18711e+18 0 0 1.53525e+14 3.07049e+14 0 
709 0 146.6 2.25067e+18 191.216 138.587 136.938 7477.36 -1.06936 -1.11262 2.24898e+18 0 0 3.07049e+14 1.38172e+15 0 
713 0 143.31 2.20016e+18 231.766 139.471 138.537 7471.46 1.4281 -1.36406 2.19678e+18 0 0 3.07049e+14 2.76344e+15 3.07049e+14 
717 0 144.77 2.22258e+18 265.264 147.346 138.722 7469.27 -0.874385 0.666697 2.21904e+18 1.53525e+14 0 7.67623e+14 2.30287e+15 3.07049e+14 
825 0 143.54 2.20369e+18 136.576 137.119 137.238 7475.58 -1.12086 -1.98988 2.20369e+18 0 0 0 0 0 
829 0 143.86 2.2086e+18 136.309 137.158 136.245 7475.49 -4.21386 -3.25106 2.2086e+18 0 0 0 0 0 
833 0 144.79 2.22288e+18 158.546 136.908 136.618 7476.92 -0.689426 -0.572228 2.22227e+18 0 0 0 6.14098e+14 0 
837 0 144.2 2.21382e+18 150.651 136.132 137.928 7476.14 0.661499 -1.57574 2.21367e+18 0 0 0 1.53525e+14 0 
841 0 144.49 2.21828e+18 136.577 138.193 136.463 7476.8 -1.24939 -2.56758 2.21828e+18 0 0 0 0 0 
845 0 144.04 2.21137e+18 156.209 141.499 135.598 7477.6 1.60026 0.33679 2.21075e+18 0 0 0 6.14098e+14 0 
849 0 146.95 2.25604e+18 235.2 141.157 137.836 7469.91 0.959113 2.17827 2.2519e+18 0 0 3.07049e+14 3.07049e+15 7.67623e+14 
853 0 143.86 2.2086e+18 241.798 141.437 137.84 7474.13 2.94176 0.124217 2.20477e+18 0 0 9.21147e+14 2.76344e+15 1.53525e+14 
961 0 145.15 2.22841e+18 137.102 138.137 137.583 7476.57 1.09206 0.762138 2.22841e+18 0 0 0 0 0 
965 0 142.94 2.19448e+18 149.926 137.936 136.077 7477.48 -0.957956 -0.385124 2.19402e+18 0 0 0 4.60574e+14 0 
969 0 143.89 2.20906e+18 173.563 136.353 138.466 7474.45 -0.193589 0.475611 2.2083e+18 0 0 0 7.67623e+14 0 
973 0 144.78 2.22273e+18 165.438 139.26 138.499 7477.11 -0.194822 -0.871297 2.22181e+18 0 0 0 9.21147e+14 0 
977 0 145.31 2.23087e+18 163.047 140.095 136.677 7479.07 0.38761 -0.8966 2.2301e+18 0 0 0 4.60574e+14 3.07049e+14 
981 0 144.42 2.2172e+18 164.639 137.876 137.23 7475.05 0.828953 1.43985 2.21597e+18 0 0 1.53525e+14 1.07467e+15 0 
985 0 143.66 2.20553e+18 175.651 140.138 138.245 7476.16 -1.22887 -2.40566 2.20385e+18 0 0 4.60574e+14 1.2282e+15 0 
989 0 144.72 2.22181e+18 240.225 146.739 138.262 7472.22 -0.245985 -1.8372 2.21874e+18 0 0 7.67623e+14 2.30287e+15 0 
993 0 145.52 2.23409e+18 279.022 149.828 139.497 7469.52 1.86862 0.126623 2.22749e+18 0 0 1.84229e+15 4.45221e+15 3.07049e+14 
1097 0 143.75 2.20692e+18 144.026 139.345 136.973 7477.57 -0.749309 1.77915 2.20676e+18 0 0 0 1.53525e+14 0 
1101 0 143.83 2.20814e+18 138.07 136.525 136.52 7478.4 1.37579 1.74599 2.20814e+18 0 0 0 0 0 
1105 0 144.44 2.21751e+18 146.05 137.935 136.53 7476.95 1.10305 1.69922 2.21705e+18 0 0 0 4.60574e+14 0 
1109 0 143.36 2.20093e+18 139.518 139.843 136.422 7476.82 0.401492 -1.32158 2.20031e+18 0 0 3.07049e+14 3.07049e+14 0 
1113 0 143.22 2.19878e+18 188.591 140.124 137.385 7476.51 0.0889543 -0.0375815 2.19724e+18 0 0 3.07049e+14 1.2282e+15 0 
1117 0 143.89 2.20906e+18 158.678 140.026 137.15 7477.33 0.817241 -0.201939 2.20845e+18 0 0 1.53525e+14 4.60574e+14 0 
1121 0 144.66 2.22089e+18 150.365 141.737 137.249 7477.1 -0.480054 -0.608985 2.22027e+18 0 0 1.53525e+14 4.60574e+14 0 
1125 0 142.38 2.18588e+18 193.874 141.471 137.84 7474.23 -0.993273 0.539472 2.18435e+18 0 0 1.53525e+14 1.38172e+15 0 
1129 0 144.47 2.21797e+18 268.862 141.024 138.253 7469.83 1.80235 0.229143 2.21183e+18 0 0 9.21147e+14 5.21983e+15 0 
1237 0 145 2.22611e+18 146.977 137.761 136.892 7476.22 -1.82824 -0.216926 2.22595e+18 0 0 0 1.53525e+14 0 
1241 0 143.71 2.2063e+18 138.366 139.413 135.892 7475 -0.263557 -2.13071 2.20599e+18 0 0 1.53525e+14 1.53525e+14 0 
1245 0 144.53 2.21889e+18 150.193 138.46 136.196 7478.22 -0.342559 2.1423 2.21843e+18 0 0 0 4.60574e+14 0 
1249 0 145.69 2.2367e+18 144.683 136.216 137.519 7474.56 -1.00609 -0.502596 2.23624e+18 0 0 0 4.60574e+14 0 
1253 0 143.7 2.20615e+18 164.142 137.247 136.78 7475.04 2.23042 0.668668 2.20507e+18 0 0 1.53525e+14 7.67623e+14 1.53525e+14 
1257 0 143.34 2.20062e+18 169.799 140.055 135.729 7475.13 -1.19859 -1.37913 2.19816e+18 0 0 6.14098e+14 1.53525e+15 3.07049e+14 
1261 0 145.57 2.23486e+18 164.794 149.269 137.802 7473.88 2.28568 -1.34615 2.23394e+18 0 0 4.60574e+14 4.60574e+14 0 
1265 0 143.76 2.20707e+18 267.506 138.318 139.027 7470.29 -0.597315 0.00751418 2.20277e+18 0 0 3.07049e+14 3.99164e+15 0 
1373 0 143.69 2.20599e+18 147.064 134.532 136.033 7474.83 -2.01037 -1.21535 2.20584e+18 0 0 0 1.53525e+14 0 
1377 0 143.78 2.20738e+18 148.081 136.99 135.745 7477.34 1.69352 0.335953 2.20722e+18 0 0 0 1.53525e+14 0 
1381 0 145.42 2.23255e+18 163.207 137.261 136.437 7474.5 -0.408268 -1.46945 2.23194e+18 0 0 0 6.14098e+14 0 
1385 0 144.44 2.21751e+18 154.405 136.547 135.621 7475.46 -0.0644147 0.889937 2.21705e+18 0 0 0 4.60574e+14 0 
1389 0 143.95 2.20999e+18 153.079 141.17 137.041 7476.48 -1.33155 0.429181 2.20906e+18 0 0 1.53525e+14 7.67623e+14 0 
1393 0 144.32 2.21567e+18 166.893 149.027 139.224 7472.71 0.625588 0.0901065 2.21413e+18 1.53525e+14 0 6.14098e+14 6.14098e+14 1.53525e+14 
1397 0 146.2 2.24453e+18 169.949 139.076 136.906 7475.95 0.446369 3.70431 2.24315e+18 0 0 1.53525e+14 9.21147e+14 3.07049e+14 
1401 0 146.5 2.24913e+18 222.88 143.863 137.149 7473.38 -0.574059 0.887633 2.24606e+18 1.53525e+14 0 4.60574e+14 2.30287e+15 1.53525e+14 
1509 0 144.82 2.22334e+18 137.087 137.139 136.287 7475.26 0.904848 -1.13012 2.22334e+18 0 0 0 0 0 
1513 0 144.27 2.2149e+18 139.168 137.417 137.232 7478.88 -2.79934 1.39981 2.2149e+18 0 0 0 0 0 
1517 0 144.83 2.2235e+18 144.989 138.136 137.046 7478.38 -0.485492 0.880434 2.22334e+18 0 0 0 1.53525e+14 0 
1521 0 145.72 2.23716e+18 160.511 137.716 136.304 7475.92 0.22704 0.477485 2.2367e+18 0 0 0 4.60574e+14 0 
1525 0 142.31 2.18481e+18 152.817 137.001 135.632 7476.47 -2.44826 0.980849 2.1845e+18 0 0 0 3.07049e+14 0 
1529 0 142.55 2.18849e+18 176.509 139.049 136.852 7473.76 -1.99227 0.574007 2.18757e+18 0 0 1.53525e+14 7.67623e+14 0 
1533 0 145.13 2.2281e+18 198.797 146.869 136.669 7474.36 2.31669 0.664704 2.22534e+18 0 0 7.67623e+14 1.99582e+15 0 
1537 0 146.36 2.24699e+18 215.637 146.412 137.867 7472.71 -2.76639 0.0299336 2.24345e+18 0 0 9.21147e+14 2.60992e+15 0 
1541 0 143.53 2.20354e+18 272.439 148.932 138.276 7469.38 2.88105 -2.29972 2.19847e+18 0 0 1.84229e+15 3.22402e+15 0 
1645 0 143.93 2.20968e+18 137.022 137.444 135.599 7478.54 -1.33514 -0.850065 2.20968e+18 0 0 0 0 0 
1649 0 143.25 2.19924e+18 138.646 136.445 136.55 7478.47 -0.0898247 0.934142 2.19924e+18 0 0 0 0 0 
1653 0 145.64 2.23593e+18 156.291 137.798 136.778 7475.61 0.435064 -2.13798 2.23547e+18 0 0 0 4.60574e+14 0 
1657 0 143.07 2.19648e+18 153.906 138.043 136.199 7477.45 -1.62579 -1.73917 2.19617e+18 0 0 0 3.07049e+14 0 
1661 0 143.97 2.21029e+18 145.123 137.548 135.986 7475.8 -1.44376 1.31728 2.20983e+18 0 0 1.53525e+14 3.07049e+14 0 
1665 0 146.51 2.24929e+18 174.081 139.359 135.637 7475.17 -1.95653 -0.302819 2.24852e+18 0 0 1.53525e+14 6.14098e+14 0 
1669 0 144.35 2.21613e+18 175.26 146.132 136.739 7475.4 -0.210452 -3.3034 2.21444e+18 0 0 1.53525e+14 1.38172e+15 1.53525e+14 
1673 0 144.08 2.21198e+18 206.857 147.627 138.417 7474.4 0.273478 -1.04271 2.20891e+18 0 0 9.21147e+14 2.14934e+15 0 
1677 0 145.83 2.23885e+18 227.705 150.071 138.959 7474.2 1.55397 -0.362232 2.2344e+18 0 0 1.2282e+15 3.07049e+15 1.53525e+14 
1785 0 143.24 2.19909e+18 145.366 137.741 136.378 7475.65 1.7111 -1.75123 2.19893e+18 0 0 0 1.53525e+14 0 
1789 0 144.01 2.21091e+18 144.613 135.942 136.659 7477.54 0.682046 -1.33058 2.21075e+18 0 0 0 0 1.53525e+14 
1793 0 144.82 2.22334e+18 137.436 137.038 136.097 7477 -1.22703 1.94279 2.22334e+18 0 0 0 0 0 
1797 0 144.48 2.21812e+18 150.162 137.725 136.706 7476.62 1.27334 -2.23403 2.21705e+18 0 0 3.07049e+14 7.67623e+14 0 
1801 0 144.9 2.22457e+18 146.133 136.554 136.319 7476.09 1.61783 0.148692 2.22411e+18 0 0 0 4.60574e+14 0 
1805 0 145.43 2.23271e+18 171.389 137.502 135.349 7474.48 -1.02509 1.94318 2.23179e+18 0 0 0 9.21147e+14 0 
1809 0 144.04 2.21137e+18 162.505 142.302 141.328 7476.02 0.850274 -2.39269 2.20937e+18 0 0 7.67623e+14 1.2282e+15 0 
1813 0 145.5 2.23378e+18 249.951 144.678 138.047 7470.85 -0.175692 1.39199 2.22948e+18 0 0 1.84229e+15 2.30287e+15 1.53525e+14 
1921 0 144.09 2.21214e+18 136.963 136.858 138.004 7475.25 -0.888579 0.0181256 2.21214e+18 0 0 0 0 0 
1925 0 143.94 2.20983e+18 143.961 137.838 136.429 7476.26 -2.35896 0.200478 2.20968e+18 0 0 0 1.53525e+14 0 
1929 0 143.9 2.20922e+18 138.024 137.017 134.802 7475.04 0.937193 0.152721 2.20922e+18 0 0 0 0 0 
1933 0 144.48 2.21812e+18 142.683 137.664 136.875 7474.85 -2.54646 1.67851 2.21782e+18 0 0 0 3.07049e+14 0 
1937 0 145 2.22611e+18 178.976 142.268 137.83 7474.88 -0.226921 0.136509 2.22442e+18 0 0 6.14098e+14 9.21147e+14 1.53525e+14 
1941 0 143.55 2.20385e+18 167.064 139.179 135.707 7476.66 1.31722 0.81387 2.20292e+18 0 0 3.07049e+14 6.14098e+14 0 
1945 0 144 2.21075e+18 182.849 139.574 136.721 7473.53 1.73417 -1.23507 2.20876e+18 0 0 6.14098e+14 1.2282e+15 1.53525e+14 
1949 0 144.47 2.21797e+18 249.698 146.576 139.013 7470.44 3.52316 -0.0456741 2.21183e+18 0 0 1.68877e+15 4.45221e+15 0 
2057 0 143.66 2.20553e+18 136.103 137.117 138.038 7479.17 0.209455 -0.845056 2.20553e+18 0 0 0 0 0 
2061 0 142.79 2.19218e+18 145.891 137.431 137.118 7478.41 0.954375 -1.31226 2.19202e+18 0 0 0 1.53525e+14 0 
2065 0 144.1 2.21229e+18 136.237 137.989 136.665 7478.25 1.24926 1.4018 2.21229e+18 0 0 0 0 0 
2069 0 143.67 2.20569e+18 149.59 136.826 136.188 7478.49 0.983002 0.107887 2.20523e+18 0 0 0 4.60574e+14 0 
2073 0 142.7 2.1908e+18 159.845 141.001 138.828 7477.65 1.9092 -0.881469 2.18941e+18 0 0 4.60574e+14 7.67623e+14 1.53525e+14 
2077 0 144.91 2.22472e+18 159.558 140.432 137.997 7476.9 -1.8103 0.282802 2.2238e+18 0 0 3.07049e+14 6.14098e+14 0 
2081 0 144.14 2.2129e+18 154.466 141.048 137.592 7475.11 -0.882775 -1.09067 2.21075e+18 0 0 7.67623e+14 1.2282e+15 1.53525e+14 
2085 0 143.88 2.20891e+18 217.516 143.339 137.68 7472.5 0.519549 1.60007 2.2063e+18 0 0 4.60574e+14 1.99582e+15 1.53525e+14 
2089 0 144.06 2.21167e+18 262.074 145.511 138.235 7472.16 -0.178161 0.776875 2.20707e+18 1.53525e+14 0 1.07467e+15 3.37754e+15 0 
2193 0 144.15 2.21306e+18 137.096 138.667 137.017 7477.54 1.94317 0.371902 2.21306e+18 0 0 0 0 0 
2197 0 144.6 2.21997e+18 153.227 138.463 137.075 7474.43 0.820801 0.35406 2.21966e+18 0 0 0 3.07049e+14 0 
2201 0 142.84 2.19294e+18 147.122 137.922 136.316 7477.59 0.468165 1.9661 2.19279e+18 0 0 0 1.53525e+14 0 
2205 0 144.23 2.21428e+18 167.197 137.958 135.921 7475.86 0.488995 -0.924526 2.21352e+18 0 0 0 7.67623e+14 0 
2209 0 145.62 2.23562e+18 139.598 138.521 136.526 7475.22 1.65421 2.10631 2.23516e+18 0 0 3.07049e+14 1.53525e+14 0 
2213 0 143.53 2.20354e+18 162.406 140.734 136.888 7475.47 -1.35353 0.149631 2.20308e+18 0 0 1.53525e+14 3.07049e+14 0 
2217 0 145.9 2.23992e+18 178.122 138.266 136.341 7477.84 3.03083 1.51106 2.23885e+18 0 0 1.53525e+14 7.67623e+14 1.53525e+14 
2221 0 145.64 2.23593e+18 178.757 139.522 137.118 7474.89 1.12444 1.24039 2.23317e+18 0 0 7.67623e+14 1.53525e+15 4.60574e+14 
2225 0 144.76 2.22242e+18 226.587 142.003 137.023 7472.34 -0.783919 0.25794 2.21889e+18 0 0 6.14098e+14 2.60992e+15 3.07049e+14 
2333 0 143.82 2.20799e+18 151.034 138.098 136.272 7476.56 -0.171786 2.13737 2.20768e+18 0 0 0 3.07049e+14 0 
2337 0 143.48 2.20277e+18 150.068 137.843 135.829 7476.94 -0.025547 -0.307267 2.20246e+18 0 0 0 3.07049e+14 0 
2341 0 144.92 2.22488e+18 138.334 136.687 136.356 7477.2 -0.597815 -2.1945 2.22488e+18 0 0 0 0 0 
2345 0 145.08 2.22733e+18 161.092 140.335 136.483 7473.79 1.89169 0.300525 2.22687e+18 0 0 1.53525e+14 3.07049e+14 0 
2349 0 143.39 2.20139e+18 141.365 137.546 136.569 7476.29 0.160841 -1.45399 2.20124e+18 0 0 1.53525e+14 0 0 
2353 0 145.84 2.239e+18 168.965 138.155 135.696 7476.03 -0.284131 -0.351127 2.23808e+18 0 0 1.53525e+14 6.14098e+14 1.53525e+14 
2357 0 145.64 2.23593e+18 179.395 141.286 136.839 7471.8 -0.301762 1.14529 2.23363e+18 0 0 1.53525e+14 1.99582e+15 1.53525e+14 
2361 0 146.91 2.25543e+18 222.232 143.179 137.173 7474.49 1.00747 0.208679 2.25174e+18 0 0 9.21147e+14 2.60992e+15 1.53525e+14 
2469 0 143.35 2.20077e+18 138.185 138.48 136.581 7478.65 1.35348 -0.305464 2.20077e+18 0 0 0 0 0 
2473 0 144.44 2.21751e+18 148.388 136.114 136.129 7477.47 -0.933355 -1.8847 2.21736e+18 0 0 0 1.53525e+14 0 
2477 0 144.13 2.21275e+18 177.427 138.757 136.864 7476.11 -2.53328 0.443965 2.21214e+18 0 0 3.07049e+14 3.07049e+14 0 
2481 0 145.08 2.22733e+18 165.128 139.583 137.043 7477.35 -0.213226 -2.26417 2.22626e+18 0 0 1.53525e+14 9.21147e+14 0 
2485 0 143.01 2.19555e+18 147.409 136.712 136.56 7478.98 -1.58411 -0.839975 2.1954e+18 0 0 0 1.53525e+14 0 
2489 0 143.82 2.20799e+18 163.733 137.808 137.087 7476.9 -1.95236 2.25307 2.20738e+18 0 0 0 6.14098e+14 0 
2493 0 145.09 2.22749e+18 181.193 140.013 137.592 7474.96 1.03943 -0.0293756 2.2258e+18 0 0 3.07049e+14 1.38172e+15 0 
2497 0 143.58 2.20431e+18 240.01 138.003 137.113 7471.96 3.6326 -1.20215 2.20108e+18 0 0 1.53525e+14 3.07049e+15 0 
2605 0 145.73 2.23731e+18 135.282 136.823 136.013 7476.71 0.322085 -0.554435 2.23731e+18 0 0 0 0 0 
2609 0 145.42 2.23255e+18 145.867 137.673 135.714 7476.93 0.237255 3.97577 2.2324e+18 0 0 0 1.53525e+14 0 
2613 0 142.96 2.19479e+18 144.752 139.873 136.063 7475.71 0.319507 2.84228 2.19448e+18 0 0 0 3.07049e+14 0 
2617 0 143.94 2.20983e+18 138.183 136.742 135.397 7478.9 -0.95342 -1.69646 2.20953e+18 0 0 1.53525e+14 1.53525e+14 0 
2621 0 144.01 2.21091e+18 145.232 136.9 135.887 7476.47 2.45339 1.94179 2.2106e+18 0 0 0 3.07049e+14 0 
2625 0 145.32 2.23102e+18 155.608 137.591 137.613 7475.99 1.05837 2.6466 2.23071e+18 0 0 0 3.07049e+14 0 
2629 0 142.92 2.19417e+18 175.732 139.59 137.788 7474.32 -0.765257 -1.23494 2.19233e+18 0 0 3.07049e+14 1.53525e+15 0 
2633 0 143.99 2.2106e+18 172.024 139.278 137.177 7475.68 -0.937871 1.17978 2.20922e+18 0 0 1.53525e+14 1.2282e+15 0 
2637 0 144.77 2.22258e+18 238.303 145.271 137.52 7470.67 -0.575117 -0.0643244 2.21874e+18 0 0 9.21147e+14 2.76344e+15 1.53525e+14 
2741 0 144.31 2.21551e+18 141.752 138.587 136.804 7477.18 -1.98121 2.44467 2.21505e+18 0 0 1.53525e+14 3.07049e+14 0 
2745 0 144.51 2.21858e+18 138.683 136.372 137.34 7476.78 1.00836 0.395091 2.21843e+18 0 0 0 1.53525e+14 0 
2749 0 143.28 2.1997e+18 145.447 136.131 136.646 7474.98 -0.644457 -0.184587 2.19924e+18 0 0 0 4.60574e+14 0 
2753 0 144.54 2.21904e+18 144.896 138.737 136.782 7478.76 -0.879678 2.9943 2.21889e+18 0 0 0 1.53525e+14 0 
2757 0 146.68 2.2519e+18 139.951 136.823 136.341 7477.61 0.894977 0.75179 2.25174e+18 0 0 0 1.53525e+14 0 
2761 0 144.49 2.21828e+18 155.077 139.52 136.11 7473.11 -0.753953 1.11965 2.21736e+18 0 0 4.60574e+14 4.60574e+14 0 
2765 0 143.94 2.20983e+18 168.359 139.035 137.606 7476.06 4.15186 0.780419 2.20799e+18 0 0 4.60574e+14 1.2282e+15 1.53525e+14 
2769 0 144.37 2.21643e+18 186.256 140.275 137.273 7474.39 1.86225 1.46515 2.21398e+18 0 0 7.67623e+14 1.38172e+15 3.07049e+14 
2773 0 147.68 2.26725e+18 240.359 137.664 138.084 7469.23 1.35907 1.66243 2.26326e+18 0 0 1.07467e+15 2.91697e+15 0 
2881 0 144.1 2.21229e+18 151.15 138.814 137.934 7478.88 0.800431 -0.0545549 2.21167e+18 0 0 1.53525e+14 3.07049e+14 1.53525e+14 
2885 0 143.07 2.19648e+18 146.96 136.51 136.799 7477.41 0.469368 -0.883436 2.19617e+18 0 0 1.53525e+14 1.53525e+14 0 
2889 0 144.49 2.21828e+18 138.391 137.877 136.433 7476.61 0.895849 -1.23913 2.21828e+18 0 0 0 0 0 
2893 0 143.8 2.20768e+18 139.026 139.496 136.053 7477.55 0.579703 -0.871166 2.20738e+18 0 0 0 3.07049e+14 0 
2897 0 142.17 2.18266e+18 160.927 138.309 135.992 7476.08 0.177698 -2.05957 2.18235e+18 0 0 1.53525e+14 1.53525e+14 0 
2901 0 144.06 2.21167e+18 151.084 134.946 135.475 7476.81 0.4161 -1.50783 2.21091e+18 0 0 0 7.67623e+14 0 
2905 0 144 2.21075e+18 175.292 148.085 136.493 7475.48 1.49393 -0.293483 2.20922e+18 0 0 1.53525e+14 1.2282e+15 1.53525e+14 
2909 0 143.59 2.20446e+18 191.538 143.697 139.202 7473.34 0.0991489 1.62916 2.20216e+18 0 0 4.60574e+14 1.68877e+15 1.53525e+14 
3017 0 144.06 2.21167e+18 136.865 135.744 135.882 7477.01 -0.799441 0.733432 2.21167e+18 0 0 0 0 0 
3021 0 143.73 2.20661e+18 136.759 139.206 135.967 7477.53 0.303885 -1.36645 2.20661e+18 0 0 0 0 0 
3025 0 144.75 2.22227e+18 138.736 140.145 136.767 7477.91 -1.49602 -0.324117 2.22196e+18 0 0 1.53525e+14 1.53525e+14 0 
3029 0 146.21 2.24468e+18 160.436 138.093 136.1 7474.85 -2.53487 1.77558 2.24391e+18 0 0 0 7.67623e+14 0 
3033 0 145.3 2.23071e+18 163.187 141.722 136.775 7476.71 -3.40704 -1.3892 2.22964e+18 0 0 1.53525e+14 9.21147e+14 0 
3037 0 145.47 2.23332e+18 152.655 136.765 136.734 7477.27 0.544682 -1.03226 2.2324e+18 0 0 0 9.21147e+14 0 
3041 0 147.49 2.26433e+18 203.967 139.043 138.276 7473.84 0.640547 0.128311 2.26249e+18 1.53525e+14 0 4.60574e+14 1.2282e+15 0 
3045 0 146.16 2.24391e+18 190.203 143.496 137.603 7473.56 1.15406 -0.719955 2.24084e+18 0 0 7.67623e+14 2.14934e+15 1.53525e+14 
3153 0 142.96 2.19479e+18 137.018 137.407 136.565 7479.65 1.39812 0.49709 2.19479e+18 0 0 0 0 0 
3157 0 144.08 2.21198e+18 137.324 137.685 136.913 7478.83 1.02788 0.379309 2.21198e+18 0 0 0 0 0 
3161 0 143.36 2.20093e+18 137.283 137.519 135.884 7477.67 -1.1797 2.20836 2.20093e+18 0 0 0 0 0 
3165 0 143.44 2.20216e+18 151.943 137.979 137.232 7477.57 -0.669612 1.85745 2.2017e+18 0 0 0 4.60574e+14 0 
3169 0 143.48 2.20277e+18 162.506 138.838 136.057 7476.17 3.01661 0.0630768 2.2017e+18 0 0 0 1.07467e+15 0 
3173 0 144.1 2.21229e+18 177.803 142.589 136.145 7479.49 0.495728 0.110663 2.21121e+18 0 0 0 9.21147e+14 1.53525e+14 
3177 0 143.08 2.19663e+18 158.745 140.334 136.832 7476.69 0.882203 0.458445 2.19525e+18 0 0 3.07049e+14 1.07467e+15 0 
3181 0 144.45 2.21766e+18 200.774 138.706 136.685 7474.64 0.361752 -0.194681 2.21597e+18 0 0 4.60574e+14 1.2282e+15 0 
3185 0 142.43 2.18665e+18 197.735 146.307 138.788 7476.51 -1.77089 1.35198 2.18389e+18 0 0 7.67623e+14 1.84229e+15 1.53525e+14 
3289 0 143.85 2.20845e+18 137.276 137.881 136.142 7477.79 0.0701179 0.573839 2.20845e+18 0 0 0 0 0 
3293 0 144.84 2.22365e+18 137.51 137.975 136.075 7476.54 -0.362747 1.64411 2.22365e+18 0 0 0 0 0 
3297 0 143.1 2.19694e+18 135.038 136.565 136.011 7479 -2.08221 -1.02031 2.19694e+18 0 0 0 0 0 
3301 0 144.55 2.2192e+18 142.17 141.463 135.723 7477.39 2.00654 0.307828 2.2192e+18 0 0 0 0 0 
3305 0 143.53 2.20354e+18 145.388 141.497 135.905 7476.51 -2.10663 2.2018 2.20323e+18 0 0 0 3.07049e+14 0 
3309 0 145.97 2.241e+18 164.193 136.727 135.802 7478.39 -3.3615 -0.7137 2.23992e+18 0 0 1.53525e+14 9.21147e+14 0 
3313 0 144.97 2.22565e+18 170.772 138.508 136.148 7475.88 0.430019 -0.0198961 2.22457e+18 0 0 1.53525e+14 9.21147e+14 0 
3317 0 143.8 2.20768e+18 181.788 141.929 139.831 7475.8 -2.84405 2.0193 2.20645e+18 0 0 1.53525e+14 1.07467e+15 0 
3321 0 145.92 2.24023e+18 212.642 139.311 138.17 7473.39 0.448519 -0.710281 2.23808e+18 1.53525e+14 0 1.53525e+14 1.68877e+15 1.53525e+14 
3429 0 143.4 2.20154e+18 138.356 138.667 134.934 7476.31 -0.888407 -0.649927 2.20154e+18 0 0 0 0 0 
3433 0 144.57 2.2195e+18 144.228 137.71 136.126 7477.55 -2.44517 1.42254 2.21935e+18 0 0 0 1.53525e+14 0 
3437 0 144.81 2.22319e+18 144.421 136.756 137.286 7477.11 -1.11771 -0.869187 2.22288e+18 0 0 1.53525e+14 1.53525e+14 0 
3441 0 144.17 2.21336e+18 145.453 136.034 136.205 7478.86 0.665808 0.334543 2.21321e+18 0 0 0 1.53525e+14 0 
3445 0 143.89 2.20906e+18 143.8 139.344 136.304 7476.8 0.363654 -0.325724 2.20891e+18 0 0 0 1.53525e+14 0 
3449 0 142.39 2.18604e+18 168.65 138.513 136.88 7476.1 0.414214 1.98905 2.18481e+18 0 0 3.07049e+14 9.21147e+14 0 
3453 0 143.93 2.20968e+18 171.657 136.819 136.619 7474.3 0.331567 -0.590099 2.20845e+18 0 0 0 1.07467e+15 1.53525e+14 
3457 0 145.86 2.23931e+18 182.879 144.805 136.401 7477 0.885321 2.38417 2.2367e+18 0 0 6.14098e+14 1.84229e+15 1.53525e+14 
3565 0 142.94 2.19448e+18 136.852 140.156 137.417 7476.83 0.22031 0.0101787 2.19448e+18 0 0 0 0 0 
3569 0 145.23 2.22964e+18 143.296 137.449 137.062 7475.38 -0.0519208 -0.37217 2.22948e+18 0 0 0 1.53525e+14 0 
3573 0 145.09 2.22749e+18 144.468 136.327 136.484 7478.1 0.67498 -0.326904 2.22718e+18 0 0 0 3.07049e+14 0 
3577 0 144.67 2.22104e+18 145.673 141.372 137.427 7475.76 0.983788 2.43236 2.22043e+18 0 0 3.07049e+14 3.07049e+14 0 
3581 0 144.4 2.21689e+18 161.216 137.494 137.992 7476.18 -2.83726 0.574252 2.21628e+18 0 0 0 6.14098e+14 0 
3585 0 142.96 2.19479e+18 149.708 137.271 136.853 7477 -0.320024 0.400477 2.19433e+18 0 0 1.53525e+14 3.07049e+14 0 
3589 0 145.08 2.22733e+18 184.057 143.343 138.289 7473.45 0.867942 1.90119 2.22549e+18 0 0 9.21147e+14 9.21147e+14 0 
3593 0 142.98 2.19509e+18 194.725 141.587 139.596 7475.6 1.50351 -0.441685 2.1931e+18 0 0 4.60574e+14 1.53525e+15 0 
3701 0 144.53 2.21889e+18 137.308 136.946 135.89 7477.23 -0.313957 0.624169 2.21889e+18 0 0 0 0 0 
3705 0 145.04 2.22672e+18 157.885 136.062 135.132 7476.37 0.674153 -0.560304 2.22626e+18 0 0 0 4.60574e+14 0 
3709 0 143.93 2.20968e+18 154.162 139.18 136.671 7474.82 -1.80919 -1.51125 2.20922e+18 0 0 0 4.60574e+14 0 
3713 0 144.7 2.2215e+18 140.378 138.577 136.675 7475.7 -0.970738 -0.103258 2.22135e+18 0 0 0 1.53525e+14 0 
3717 0 144.71 2.22165e+18 159.525 139.402 138.168 7475.13 -0.124489 -0.532512 2.22089e+18 0 0 1.53525e+14 6.14098e+14 0 
3721 0 143.72 2.20645e+18 159.152 141.794 138.677 7474.65 1.07008 -0.0900949 2.20477e+18 0 0 7.67623e+14 9.21147e+14 0 
3725 0 144.3 2.21536e+18 145.203 136.931 137.044 7477.44 0.420006 -0.625009 2.21521e+18 0 0 0 1.53525e+14 0 
3729 0 144.08 2.21198e+18 210.681 140.305 137.229 7472.57 -0.543905 -0.862349 2.20953e+18 0 0 6.14098e+14 1.84229e+15 0 
3733 0 145.35 2.23148e+18 185.424 142.152 137.64 7473.38 2.4922 -2.09549 2.22902e+18 0 0 1.07467e+15 1.38172e+15 0 
3837 0 144.38 2.21659e+18 146.89 138.585 137.321 7477.39 -0.0636519 -1.38666 2.21643e+18 0 0 0 1.53525e+14 0 
3841 0 144.74 2.22211e+18 136.825 139.732 136.77 7476.35 -0.306991 0.818535 2.22211e+18 0 0 0 0 0 
3845 0 144.93 2.22503e+18 144.484 139.532 136.89 7475.6 -1.25382 -2.35794 2.22472e+18 0 0 1.53525e+14 1.53525e+14 0 
3849 0 143.93 2.20968e+18 141.888 148.847 137.07 7476.36 -0.960742 0.166206 2.20906e+18 0 0 6.14098e+14 0 0 
3853 0 144.37 2.21643e+18 174.42 148.257 137.57 7476.36 0.493758 -0.456917 2.21459e+18 0 0 6.14098e+14 1.2282e+15 0 
3857 0 145.23 2.22964e+18 145.357 145.391 137.84 7475.67 -0.126578 -2.59158 2.22856e+18 0 0 4.60574e+14 4.60574e+14 1.53525e+14 
3861 0 142.95 2.19463e+18 156.162 141.571 137.069 7476.24 1.44758 -0.713738 2.19341e+18 0 0 3.07049e+14 9.21147e+14 0 
3865 0 144.93 2.22503e+18 177.49 143.455 136.177 7476.66 -0.411997 1.50242 2.2235e+18 0 0 3.07049e+14 1.2282e+15 0 
3869 0 145.17 2.22872e+18 182.706 141.164 136.786 7473.39 -1.16016 -0.991865 2.22611e+18 0 0 6.14098e+14 1.99582e+15 0 
3977 0 144.38 2.21659e+18 139.035 138.171 135.524 7477.59 -0.380069 -0.755814 2.21659e+18 0 0 0 0 0 
3981 0 146.54 2.24975e+18 142.588 138.487 136.662 7477.31 -0.455713 1.10728 2.24944e+18 0 0 0 1.53525e+14 1.53525e+14 
3985 0 144.52 2.21874e+18 150.259 138.77 136.034 7477.06 0.403456 -0.424826 2.21843e+18 0 0 0 3.07049e+14 0 
3989 0 144.17 2.21336e+18 170.231 136.805 136.385 7474.77 -0.110499 -1.69517 2.2126e+18 0 0 0 7.67623e+14 0 
3993 0 144.84 2.22365e+18 156.289 138.51 136.756 7477.8 1.31527 -0.41507 2.22288e+18 0 0 1.53525e+14 4.60574e+14 1.53525e+14 
3997 0 144.03 2.21121e+18 150.988 140.891 138.09 7475.84 0.115173 -1.82734 2.21045e+18 0 0 1.53525e+14 3.07049e+14 3.07049e+14 
4001 0 144.58 2.21966e+18 149.767 135.918 137.509 7476.47 0.41001 0.250981 2.21843e+18 0 0 3.07049e+14 9.21147e+14 0 
4005 0 143.86 2.2086e+18 180.884 140.976 136.939 7475.46 1.42717 -1.1105 2.2063e+18 0 0 4.60574e+14 1.84229e+15 0 
4113 0 144.4 2.21689e+18 147.548 138.137 136.118 7476.37 -1.82942 -0.178078 2.21674e+18 0 0 0 1.53525e+14 0 
4117 0 144.63 2.22043e+18 139.141 136.298 135.85 7479.47 0.753103 0.773374 2.22043e+18 0 0 0 0 0 
4121 0 142.79 2.19218e+18 140.278 140.609 138.104 7477.29 0.544154 1.61821 2.19187e+18 0 0 1.53525e+14 1.53525e+14 0 
4125 0 144.79 2.22288e+18 146.075 138.548 137.121 7475.7 -0.537705 3.10779 2.22273e+18 0 0 0 1.53525e+14 0 
4129 0 145.15 2.22841e+18 148.146 136.391 136.649 7478.48 0.0192114 0.634986 2.22795e+18 0 0 1.53525e+14 3.07049e+14 0 
4133 0 144.41 2.21705e+18 146.727 140.036 136.517 7477.03 0.568114 3.22361 2.21628e+18 0 0 3.07049e+14 4.60574e+14 0 