ITEM: TIMESTEP
23000
ITEM: NUMBER OF CELLS
10393
ITEM: BOX BOUNDS oo ao pp
-10 10
0 10
-0.5 0.5
ITEM: CELLS id proc f_avg_n f_avg_nrho f_avg_temp_tra f_avg_temp_rot f_avg_temp_vib f_avg_vel[1] f_avg_vel[2] f_avg_vel[3] f_avg_nrho_CO2 f_avg_nrho_O2 f_avg_nrho_C2 f_avg_nrho_CO f_avg_nrho_O f_avg_nrho_C 
1 0 145.536 2.23433e+18 137.848 137.785 136.477 7478.15 6.4205 -0.119958 2.23433e+18 0 0 0 0 0 
5 0 154.122 2.36615e+18 139.17 137.176 136.312 7476.96 25.8233 -0.491365 2.36615e+18 0 0 0 0 0 
9 0 160.915 2.47044e+18 144.369 137.7 136.687 7476.73 32.4401 0.34678 2.47027e+18 0 0 3.07049e+13 1.38172e+14 0 
13 0 163.987 2.5176e+18 143.606 138.19 136.467 7477.37 34.571 -0.457322 2.51728e+18 1.53525e+13 0 3.07049e+13 2.76344e+14 0 
17 0 166.422 2.55499e+18 147.504 138.472 136.576 7477.02 32.2348 -0.0646826 2.55446e+18 1.53525e+13 0 4.60574e+13 4.60574e+14 0 
21 0 166.435 2.55519e+18 148.681 139.708 136.748 7476.07 27.9436 0.511501 2.55439e+18 0 0 2.45639e+14 5.52688e+14 0 
25 0 164.461 2.52488e+18 174.511 142.283 137.414 7475.43 23.1553 1.48621 2.52299e+18 1.53525e+13 0 3.22402e+14 1.5506e+15 0 
29 0 162.554 2.4956e+18 181.422 143.269 137.847 7474.38 17.6298 -0.438277 2.49324e+18 4.60574e+13 0 4.14516e+14 1.82694e+15 7.67623e+13 
33 0 159.675 2.4514e+18 240.019 151.733 138.118 7470.19 15.7607 -0.746419 2.44654e+18 9.21147e+13 0 9.51852e+14 3.63853e+15 1.84229e+14 
141 0 144.338 2.21594e+18 143.053 137.418 136.441 7476.53 -0.0912172 0.375459 2.21579e+18 0 0 0 1.53525e+14 0 
145 0 144.049 2.21151e+18 146.763 137.74 136.692 7476.69 0.0798983 0.297873 2.21129e+18 0 0 0 1.68877e+14 4.60574e+13 
149 0 144.504 2.21849e+18 145.827 137.166 136.552 7476.76 -0.0696242 -0.0281862 2.21828e+18 0 0 3.07049e+13 1.84229e+14 0 
153 0 144.569 2.21949e+18 148.254 138.154 137.079 7476.23 0.0742879 0.993763 2.21907e+18 0 0 1.2282e+14 2.91697e+14 0 
157 0 144.713 2.2217e+18 164.498 141.771 137.163 7475.18 0.992835 0.396698 2.22053e+18 0 0 2.45639e+14 9.05795e+14 1.53525e+13 
161 0 145.679 2.23653e+18 178.167 139.819 137.266 7474.79 3.02997 -0.430914 2.23493e+18 0 0 3.37754e+14 1.2282e+15 3.07049e+13 
165 0 146.935 2.25581e+18 191.278 142.826 137.752 7473.52 4.36733 -0.23285 2.25356e+18 3.07049e+13 0 5.06631e+14 1.59666e+15 1.2282e+14 
169 0 147.199 2.25987e+18 234.289 149.238 138.751 7470.84 5.78791 0.447766 2.25512e+18 0 0 1.09002e+15 3.56177e+15 9.21147e+13 
277 0 144.151 2.21307e+18 142.184 138.43 136.17 7477.32 -0.92388 0.285507 2.21298e+18 0 0 3.07049e+13 6.14098e+13 0 
281 0 144.251 2.21461e+18 146.535 138.449 136.243 7476.81 0.23904 -0.285225 2.21442e+18 0 0 6.14098e+13 1.07467e+14 1.53525e+13 
285 0 144.27 2.2149e+18 150.373 138.119 136.445 7477.18 -0.830329 1.29737 2.21459e+18 0 0 6.14098e+13 2.45639e+14 0 
289 0 143.788 2.2075e+18 147.606 139.814 136.523 7477.12 -0.257834 0.44084 2.20708e+18 0 0 1.53525e+14 2.45639e+14 1.53525e+13 
293 0 144.215 2.21405e+18 147.503 138.571 136.501 7476.91 -0.102649 0.555725 2.21366e+18 0 0 9.21147e+13 2.91697e+14 1.53525e+13 
297 0 143.957 2.21009e+18 168.147 139.265 136.258 7475.58 0.219677 0.309446 2.20862e+18 0 0 2.30287e+14 1.24355e+15 0 
301 0 143.846 2.20839e+18 185.28 141.476 137.412 7474.79 0.955007 0.280688 2.20604e+18 0 0 4.75926e+14 1.84229e+15 3.07049e+13 
305 0 144.35 2.21613e+18 228.68 147.313 138.378 7470.98 1.00268 0.271836 2.21229e+18 3.07049e+13 0 9.9791e+14 2.71738e+15 9.21147e+13 
413 0 144.498 2.2184e+18 145.352 137.034 136.595 7476.88 -0.124693 0.0889835 2.21825e+18 0 0 0 9.21147e+13 6.14098e+13 
417 0 144.86 2.22396e+18 142.788 137.942 136.564 7476.96 0.324744 -0.0235524 2.22382e+18 0 0 3.07049e+13 1.07467e+14 0 
421 0 144.57 2.2195e+18 141.756 138.564 136.735 7476.75 -0.597119 -0.273826 2.2194e+18 0 0 3.07049e+13 7.67623e+13 0 
425 0 144.498 2.2184e+18 146.368 137.517 136.568 7476.62 0.0285273 -0.230372 2.21809e+18 0 0 3.07049e+13 2.60992e+14 1.53525e+13 
429 0 143.718 2.20642e+18 161.91 139.572 136.592 7475.78 0.717021 -0.587065 2.20556e+18 0 0 1.84229e+14 6.75508e+14 0 
433 0 144.908 2.22469e+18 164.635 141.58 137.307 7476.46 -0.180926 0.0432717 2.22356e+18 0 0 3.37754e+14 7.5227e+14 4.60574e+13 
437 0 144.544 2.21911e+18 194.879 141.824 137.539 7474 -0.0793218 0.544667 2.21696e+18 1.53525e+13 0 5.06631e+14 1.61201e+15 1.53525e+13 
441 0 143.999 2.21074e+18 235.668 142.45 138.215 7472.55 0.17033 0.0952999 2.20724e+18 1.53525e+13 0 6.14098e+14 2.8402e+15 3.07049e+13 
445 0 145.063 2.22707e+18 300.213 150.947 139.051 7468.4 0.106563 0.649733 2.2202e+18 3.07049e+13 0 1.79624e+15 4.95884e+15 9.21147e+13 
549 0 144.564 2.21941e+18 140.5 137.704 136.56 7477.49 -0.783574 0.186492 2.21937e+18 0 0 1.53525e+13 3.07049e+13 0 
553 0 143.985 2.21052e+18 140.353 137.142 136.306 7477.35 0.276386 0.36495 2.21035e+18 0 0 3.07049e+13 1.2282e+14 1.53525e+13 
557 0 144.51 2.21858e+18 140.307 137.435 136.254 7476.49 0.00542232 0.55513 2.21838e+18 0 0 6.14098e+13 1.38172e+14 0 
561 0 144.586 2.21975e+18 144.291 138.261 136.797 7476.9 -0.433746 0.36504 2.21927e+18 0 0 1.53525e+14 3.07049e+14 1.53525e+13 
565 0 144.559 2.21934e+18 153.382 138.959 136.846 7475.88 -0.0211646 -0.494248 2.21858e+18 0 0 2.60992e+14 4.91279e+14 0 
569 0 144.635 2.2205e+18 157.704 139.53 136.899 7476.32 -0.274558 -0.26286 2.21963e+18 0 0 2.76344e+14 5.52688e+14 4.60574e+13 
573 0 144.937 2.22514e+18 184.25 141.361 137.093 7475.37 0.692362 0.680766 2.22325e+18 0 0 4.14516e+14 1.45848e+15 1.53525e+13 
577 0 144.707 2.22161e+18 199.471 141.459 137.506 7473.59 -0.179793 0.257499 2.21881e+18 1.53525e+13 0 4.91279e+14 2.21075e+15 7.67623e+13 
581 0 144.339 2.21596e+18 267.294 150.299 139.655 7469.59 0.0659287 -0.745477 2.20997e+18 1.53525e+13 0 1.36637e+15 4.51362e+15 9.21147e+13 
689 0 144.429 2.21734e+18 138.84 137.647 136.712 7477.66 -0.645659 -0.610054 2.21728e+18 0 0 1.53525e+13 4.60574e+13 0 
693 0 144.277 2.21501e+18 144.452 138.402 136.481 7477.65 -0.0994738 0.468735 2.21481e+18 0 0 3.07049e+13 1.53525e+14 1.53525e+13 
697 0 143.864 2.20867e+18 145.743 139.746 136.385 7477.47 -0.450472 0.697999 2.20828e+18 0 0 7.67623e+13 2.91697e+14 1.53525e+13 
701 0 143.439 2.20214e+18 155.138 137.802 136.971 7476.57 -0.27817 0.398929 2.20166e+18 0 0 6.14098e+13 4.14516e+14 0 
705 0 144.365 2.21636e+18 149.503 139.066 136.892 7475.92 -0.646849 -0.652646 2.21567e+18 0 0 1.99582e+14 4.60574e+14 3.07049e+13 
709 0 144.592 2.21984e+18 172.429 139.08 136.686 7476.02 -0.171106 0.33651 2.21845e+18 0 0 2.30287e+14 1.15143e+15 1.53525e+13 
713 0 144.308 2.21548e+18 199.627 140.761 137.641 7474.07 0.263889 -0.126885 2.21304e+18 0 0 4.60574e+14 1.9037e+15 7.67623e+13 
717 0 144.599 2.21995e+18 238.36 147.236 138.076 7470.85 0.123934 0.429465 2.21564e+18 3.07049e+13 0 1.05932e+15 3.1319e+15 9.21147e+13 
825 0 143.996 2.21069e+18 140.427 137.322 136.579 7477.45 0.696779 -0.376195 2.21062e+18 0 0 1.53525e+13 6.14098e+13 0 
829 0 144.43 2.21736e+18 143.372 137.436 135.979 7476.84 -0.459633 -0.0964019 2.21722e+18 0 0 1.53525e+13 1.2282e+14 0 
833 0 144.895 2.22449e+18 147.341 138.346 136.89 7476.35 0.0378279 0.49023 2.22423e+18 0 0 1.53525e+13 2.45639e+14 0 
837 0 143.84 2.2083e+18 149.12 137.788 137.017 7477.25 0.0372175 0.528859 2.20791e+18 0 0 6.14098e+13 3.22402e+14 0 
841 0 144.38 2.21659e+18 155.57 138.88 136.629 7475.95 -0.634186 0.379987 2.21579e+18 1.53525e+13 0 1.38172e+14 6.44803e+14 0 
845 0 144.382 2.21662e+18 159.99 140.484 137.541 7475.95 0.353808 0.116369 2.21567e+18 0 0 1.99582e+14 7.5227e+14 0 
849 0 144.019 2.21105e+18 192.558 141.209 137.164 7474.6 0.689721 0.35875 2.20879e+18 1.53525e+13 0 4.91279e+14 1.67342e+15 7.67623e+13 
853 0 143.956 2.21008e+18 229.205 143.692 138.072 7471.95 -0.246693 0.161551 2.2059e+18 0 0 1.04397e+15 3.03979e+15 9.21147e+13 
961 0 144.459 2.2178e+18 140.182 137.364 136.535 7477.43 -0.065828 0.121332 2.21774e+18 0 0 0 4.60574e+13 1.53525e+13 
965 0 143.878 2.20888e+18 142.004 137.394 136.594 7476.78 0.266512 -0.11618 2.20873e+18 0 0 1.53525e+13 1.2282e+14 1.53525e+13 
969 0 143.807 2.20779e+18 144.569 137.371 136.732 7476.84 -0.135104 0.358421 2.20761e+18 0 0 1.53525e+13 1.68877e+14 0 
973 0 144.301 2.21537e+18 145.559 138.257 136.783 7476.76 -0.264721 0.211112 2.21505e+18 0 0 4.60574e+13 2.60992e+14 1.53525e+13 
977 0 144.398 2.21686e+18 152.748 138.384 136.467 7477.1 0.319042 -0.264086 2.2163e+18 0 0 6.14098e+13 4.75926e+14 3.07049e+13 
981 0 144.113 2.21249e+18 160.507 139.109 137.158 7475.75 -0.0214967 0.592921 2.21152e+18 0 0 2.14934e+14 7.36918e+14 1.53525e+13 
985 0 144.036 2.21131e+18 177.656 142.277 137.275 7474.93 0.0724276 0.0900758 2.20956e+18 1.53525e+13 0 4.14516e+14 1.30496e+15 1.53525e+13 
989 0 144.765 2.2225e+18 212.099 143.386 137.754 7472.84 0.312567 0.531313 2.21941e+18 1.53525e+13 0 7.06213e+14 2.27216e+15 9.21147e+13 
993 0 144.584 2.21972e+18 274.475 149.133 139.068 7469 0.432772 1.18345 2.21359e+18 6.14098e+13 0 1.50454e+15 4.42151e+15 1.38172e+14 
1097 0 144.117 2.21255e+18 140.68 137.799 136.335 7477.61 0.106818 -0.204607 2.21249e+18 0 0 0 6.14098e+13 0 
1101 0 144.139 2.21289e+18 137.571 136.916 136.817 7477.33 -0.163339 0.252579 2.21286e+18 0 0 0 3.07049e+13 0 
1105 0 144.085 2.21206e+18 142.196 138.406 136.41 7477.41 -0.125804 0.0387197 2.21191e+18 0 0 1.53525e+13 1.38172e+14 0 
1109 0 144.057 2.21163e+18 142.903 137.739 136.621 7477.43 -0.170914 -0.131662 2.21135e+18 0 0 6.14098e+13 2.14934e+14 0 
1113 0 144.351 2.21614e+18 149.918 138.163 136.859 7477.91 -0.328703 0.229417 2.2157e+18 0 0 1.2282e+14 3.22402e+14 0 
1117 0 144.492 2.21831e+18 156.778 138.72 136.421 7477.03 0.197775 -0.456844 2.21752e+18 0 0 1.38172e+14 6.44803e+14 0 
1121 0 144.342 2.216e+18 175.227 138.831 136.902 7476.13 -0.389139 -0.207167 2.21444e+18 0 0 3.37754e+14 1.21284e+15 1.53525e+13 
1125 0 143.999 2.21074e+18 205.268 143.116 137.603 7474.12 -0.345209 0.830166 2.20824e+18 1.53525e+13 0 5.83393e+14 1.85765e+15 4.60574e+13 
1129 0 144.509 2.21857e+18 260.307 147.857 138.388 7470.3 0.642044 -0.539389 2.21316e+18 4.60574e+13 0 1.24355e+15 4.05305e+15 6.14098e+13 
1237 0 144.929 2.22502e+18 140.35 138.011 136.496 7477.72 -1.51166 0.0354132 2.22495e+18 0 0 0 4.60574e+13 1.53525e+13 
1241 0 144.076 2.21192e+18 140.258 137.993 136.499 7477.08 -0.0996258 -0.804245 2.21175e+18 0 0 6.14098e+13 1.07467e+14 0 
1245 0 144.538 2.21901e+18 145.181 138.077 136.42 7477.51 -0.0339907 0.26457 2.21877e+18 0 0 1.53525e+13 2.30287e+14 0 
1249 0 144.428 2.21732e+18 146.737 138.452 136.81 7476.56 -1.15594 -0.19932 2.21699e+18 0 0 7.67623e+13 2.60992e+14 0 
1253 0 144.567 2.21946e+18 151.247 138.488 136.333 7476.42 0.455087 -0.299957 2.21892e+18 0 0 6.14098e+13 4.45221e+14 3.07049e+13 
1257 0 144.047 2.21148e+18 169.193 141.178 136.908 7475.42 0.0226478 0.141616 2.21006e+18 1.53525e+13 0 3.68459e+14 9.67205e+14 6.14098e+13 
1261 0 145.039 2.2267e+18 193.83 143.216 137.549 7474.55 0.224477 0.560276 2.22454e+18 0 0 5.68041e+14 1.5813e+15 1.53525e+13 
1265 0 144.618 2.22024e+18 238.422 142.75 138.37 7471.86 -0.111725 0.0891928 2.21642e+18 0 0 9.67205e+14 2.8095e+15 4.60574e+13 
1373 0 144.159 2.21319e+18 144.22 137.082 136.888 7477.2 -0.584971 0.118771 2.2131e+18 0 0 3.07049e+13 6.14098e+13 0 
1377 0 144.55 2.2192e+18 144.241 137.686 136.632 7476.84 -0.0038711 0.426653 2.21911e+18 0 0 3.07049e+13 6.14098e+13 0 
1381 0 144.445 2.21759e+18 144.62 136.504 136.616 7476.95 -0.926188 0.49573 2.21739e+18 0 0 1.53525e+13 1.84229e+14 0 
1385 0 144.515 2.21866e+18 147.063 138.427 136.707 7476.8 -0.268565 0.396126 2.21831e+18 0 0 7.67623e+13 2.60992e+14 1.53525e+13 
1389 0 144.116 2.21253e+18 160.684 138.83 137.006 7475.99 -0.186178 0.319813 2.21174e+18 0 0 1.2282e+14 6.75508e+14 0 
1393 0 144.712 2.22168e+18 162.122 140.384 137.309 7475.39 -0.455066 0.879272 2.22049e+18 3.07049e+13 0 3.53106e+14 7.5227e+14 6.14098e+13 
1397 0 144.392 2.21677e+18 185.384 141.951 137.35 7474.77 0.388057 0.900164 2.2147e+18 1.53525e+13 0 5.06631e+14 1.47384e+15 7.67623e+13 
1401 0 144.637 2.22053e+18 214.191 145.094 137.758 7472.93 0.630571 -0.303823 2.21722e+18 3.07049e+13 0 6.90861e+14 2.54851e+15 4.60574e+13 
1509 0 144.568 2.21947e+18 138.14 138.222 136.296 7477.18 0.283624 -0.383745 2.21944e+18 0 0 1.53525e+13 1.53525e+13 0 
1513 0 144.313 2.21556e+18 139.128 137.779 136.596 7477.27 -0.920567 0.626119 2.21548e+18 0 0 4.60574e+13 3.07049e+13 0 
1517 0 144.099 2.21227e+18 143.902 138.187 136.885 7477.74 0.0152934 0.160793 2.21207e+18 0 0 3.07049e+13 1.68877e+14 0 
1521 0 144.597 2.21992e+18 149.587 137.367 136.311 7476.75 0.797872 0.189574 2.21954e+18 0 0 4.60574e+13 3.37754e+14 0 
1525 0 144.109 2.21243e+18 151.524 140.181 136.43 7476.82 -0.676315 0.844387 2.21186e+18 0 0 1.68877e+14 3.83811e+14 1.53525e+13 
1529 0 143.856 2.20854e+18 168.282 140.721 137.316 7476.26 -0.120277 0.642218 2.2075e+18 0 0 3.22402e+14 6.75508e+14 4.60574e+13 
1533 0 144.473 2.21802e+18 177.885 140.749 137.16 7475.04 0.800623 0.610636 2.21633e+18 0 0 3.83811e+14 1.28961e+15 1.53525e+13 
1537 0 144.422 2.21723e+18 211.592 143.021 137.842 7473.61 -0.296649 -0.0418756 2.21415e+18 3.07049e+13 0 6.90861e+14 2.30287e+15 6.14098e+13 
1541 0 144.723 2.22185e+18 278.96 150.655 138.954 7469.2 1.36868 0.66436 2.216e+18 1.53525e+13 0 1.45848e+15 4.22193e+15 1.53525e+14 
1645 0 144.287 2.21516e+18 138.879 137.471 136.309 7477.59 -0.345786 -0.107231 2.21513e+18 0 0 0 3.07049e+13 0 
1649 0 144.114 2.2125e+18 139.991 137.504 136.563 7476.4 -0.229891 0.2755 2.21244e+18 0 0 1.53525e+13 4.60574e+13 0 
1653 0 144.229 2.21427e+18 143.149 139.013 136.261 7477.37 -0.29134 -0.469826 2.21407e+18 0 0 4.60574e+13 1.38172e+14 1.53525e+13 
1657 0 144.502 2.21846e+18 147.013 139.093 136.376 7477.33 0.175481 -0.600642 2.21806e+18 0 0 7.67623e+13 3.22402e+14 0 
1661 0 143.995 2.21068e+18 148.758 138.104 136.681 7476.32 -0.157764 0.185934 2.21025e+18 0 0 1.2282e+14 2.91697e+14 1.53525e+13 
1665 0 144.783 2.22277e+18 155.583 139.215 136.5 7476.79 0.230629 -0.242315 2.22222e+18 0 0 1.2282e+14 4.29869e+14 0 
1669 0 144.365 2.21636e+18 165.944 140.121 136.751 7475.84 -0.096798 -0.472386 2.21536e+18 1.53525e+13 0 2.14934e+14 7.36918e+14 3.07049e+13 
1673 0 144.143 2.21295e+18 198.879 143.878 137.384 7473.46 1.04811 -0.224929 2.2104e+18 1.53525e+13 0 4.91279e+14 1.96511e+15 7.67623e+13 
1677 0 144.345 2.21605e+18 232.411 146.87 138.213 7471.87 0.809066 -0.561127 2.21217e+18 0 0 9.9791e+14 2.74809e+15 1.38172e+14 
1785 0 144.352 2.21616e+18 140.009 137.564 136.263 7477.39 0.0341582 -0.319465 2.21608e+18 0 0 1.53525e+13 6.14098e+13 0 
1789 0 144.211 2.21399e+18 140.646 137.858 136.639 7476.56 0.17409 0.384465 2.21384e+18 0 0 4.60574e+13 9.21147e+13 1.53525e+13 
1793 0 144.218 2.2141e+18 143.869 137.206 136.578 7476.15 0.258737 0.380612 2.21385e+18 0 0 1.53525e+13 1.99582e+14 3.07049e+13 
1797 0 144.276 2.21499e+18 146.602 138.454 136.403 7477.18 -0.135669 0.418394 2.21453e+18 0 0 9.21147e+13 3.53106e+14 1.53525e+13 
1801 0 144.879 2.22425e+18 155.189 138.661 136.563 7476.82 0.483802 0.0701346 2.2236e+18 1.53525e+13 0 6.14098e+13 5.52688e+14 1.53525e+13 
1805 0 145.106 2.22773e+18 173.336 140.637 137.133 7474.73 0.174573 0.330364 2.22641e+18 0 0 3.22402e+14 9.51852e+14 4.60574e+13 
1809 0 144.408 2.21702e+18 180.165 141.502 137.062 7474.89 -0.337743 0.101969 2.21491e+18 0 0 5.06631e+14 1.5506e+15 4.60574e+13 
1813 0 144.577 2.21961e+18 222.408 147.394 138.853 7471.88 0.516759 0.243628 2.21584e+18 0 0 1.02861e+15 2.67133e+15 7.67623e+13 
1921 0 144 2.21075e+18 138.245 137.624 136.824 7477.27 -0.294008 0.386515 2.21072e+18 0 0 1.53525e+13 1.53525e+13 0 
1925 0 144.33 2.21582e+18 141.154 137.305 136.72 7476.94 -0.848326 -0.179205 2.21574e+18 0 0 1.53525e+13 6.14098e+13 0 
1929 0 144.245 2.21451e+18 140.978 137.85 136.359 7476.37 -0.00855503 0.809016 2.21439e+18 0 0 3.07049e+13 9.21147e+13 0 
1933 0 143.589 2.20444e+18 143.468 137.956 136.603 7477.22 -0.596549 -0.368944 2.20421e+18 0 0 4.60574e+13 1.68877e+14 1.53525e+13 
1937 0 144.726 2.2219e+18 157.356 139.833 137.279 7476.43 -0.190931 -0.167753 2.22099e+18 0 0 2.76344e+14 5.68041e+14 6.14098e+13 
1941 0 144.168 2.21333e+18 157.157 138.623 136.387 7476.61 0.0343657 0.242762 2.21255e+18 1.53525e+13 0 1.84229e+14 5.52688e+14 3.07049e+13 
1945 0 144.612 2.22015e+18 182.626 140.481 137.196 7475.08 0.604816 -0.649868 2.21848e+18 0 0 2.45639e+14 1.32031e+15 1.07467e+14 
1949 0 144.056 2.21161e+18 207.864 145.227 137.782 7472.73 0.410442 -0.530627 2.20805e+18 0 0 8.7509e+14 2.65597e+15 3.07049e+13 
2057 0 144.264 2.21481e+18 139.386 137.443 136.824 7477.9 -0.509071 -0.498738 2.21476e+18 0 0 0 4.60574e+13 0 
2061 0 144.088 2.2121e+18 141.561 138.276 136.661 7478.12 0.446474 -0.0922995 2.21195e+18 0 0 4.60574e+13 1.07467e+14 0 
2065 0 144.347 2.21608e+18 143.223 137.416 136.371 7477.76 -0.288185 -0.00262582 2.21596e+18 0 0 0 1.07467e+14 1.53525e+13 
2069 0 144.189 2.21366e+18 143.489 137.941 136.957 7477.32 0.122463 -0.260816 2.21339e+18 0 0 4.60574e+13 1.99582e+14 1.53525e+13 
2073 0 144.342 2.216e+18 149.687 138.619 136.734 7477.5 -0.0389152 -0.103032 2.21551e+18 0 0 1.38172e+14 3.22402e+14 3.07049e+13 
2077 0 144.716 2.22175e+18 159.782 139.808 137.266 7477.05 -0.250747 0.751495 2.22081e+18 0 0 2.30287e+14 6.75508e+14 3.07049e+13 
2081 0 143.842 2.20833e+18 172.315 141.925 137.128 7475.16 0.63146 0.116841 2.20678e+18 0 0 3.37754e+14 1.18214e+15 3.07049e+13 
2085 0 144.292 2.21524e+18 196.696 142.545 137.425 7473.97 0.556885 0.231719 2.21278e+18 1.53525e+13 0 5.52688e+14 1.81159e+15 7.67623e+13 
2089 0 144.113 2.21249e+18 254.148 146.922 138.028 7471.07 0.906014 0.383681 2.2075e+18 1.53525e+13 0 1.04397e+15 3.86882e+15 6.14098e+13 
2193 0 144.153 2.2131e+18 139.45 138.015 136.525 7477.28 -0.136476 0.247128 2.21306e+18 0 0 0 4.60574e+13 0 
2197 0 143.941 2.20985e+18 141.654 137.554 136.527 7477.59 -0.50417 0.836022 2.20974e+18 0 0 0 1.07467e+14 0 
2201 0 143.839 2.20828e+18 145.31 137.074 136.382 7477.3 0.225087 0.319895 2.20807e+18 0 0 3.07049e+13 1.84229e+14 0 
2205 0 144.377 2.21654e+18 144.271 138.172 136.521 7476.77 0.283154 -0.428748 2.21636e+18 0 0 1.53525e+13 1.53525e+14 1.53525e+13 
2209 0 144.154 2.21312e+18 142.546 137.646 136.557 7477.4 0.389231 1.03573 2.21289e+18 3.07049e+13 0 4.60574e+13 1.38172e+14 1.53525e+13 
2213 0 143.993 2.21065e+18 153.439 138.804 137.217 7476.49 0.0794864 -0.173545 2.21e+18 1.53525e+13 0 1.53525e+14 4.60574e+14 1.53525e+13 
2217 0 144.501 2.21845e+18 169.579 140.455 137.348 7475.91 0.520369 -0.0581503 2.21728e+18 0 0 2.60992e+14 8.90442e+14 1.53525e+13 
2221 0 144.527 2.21884e+18 183.433 143.693 137.726 7474.92 0.208056 0.879322 2.21622e+18 0 0 6.29451e+14 1.85765e+15 1.38172e+14 
2225 0 144.154 2.21312e+18 242.479 147.152 138.455 7471.53 1.07183 -0.163409 2.20906e+18 1.53525e+13 0 1.24355e+15 2.71738e+15 7.67623e+13 
2333 0 144.471 2.21798e+18 141.788 137.535 136.929 7478.08 0.0503129 0.825136 2.21789e+18 0 0 1.53525e+13 7.67623e+13 0 
2337 0 144.38 2.21659e+18 140.422 137.094 136.325 7477.12 0.0365673 -0.462786 2.2165e+18 0 0 0 9.21147e+13 0 
2341 0 144.214 2.21404e+18 143.924 137.098 136.843 7477.24 -0.170194 -0.0355191 2.21381e+18 0 0 6.14098e+13 1.53525e+14 1.53525e+13 
2345 0 144.296 2.2153e+18 146.885 138.947 136.718 7476.59 -0.413161 0.416085 2.21504e+18 0 0 7.67623e+13 1.84229e+14 0 
2349 0 143.668 2.20566e+18 145.652 137.767 137.079 7476.22 -0.116316 -0.527946 2.20535e+18 0 0 4.60574e+13 2.60992e+14 0 
2353 0 144.009 2.21089e+18 159.884 138.744 136.89 7476.16 0.253431 0.341295 2.20974e+18 0 0 3.22402e+14 7.67623e+14 6.14098e+13 
2357 0 144.674 2.2211e+18 173.581 140.948 137.173 7475.05 0.160335 -0.0782965 2.2192e+18 0 0 3.99164e+14 1.42778e+15 7.67623e+13 
2361 0 145.262 2.23013e+18 214.253 145.418 137.854 7472.56 0.688795 -0.873539 2.22666e+18 3.07049e+13 0 8.90442e+14 2.4871e+15 6.14098e+13 
2469 0 143.944 2.20989e+18 137.309 137.28 136.402 7477.46 -0.477634 -0.108302 2.20989e+18 0 0 0 0 0 
2473 0 143.994 2.21066e+18 141.84 137.776 136.021 7477.72 -0.175177 -0.931568 2.21049e+18 0 0 1.53525e+13 1.38172e+14 1.53525e+13 
2477 0 144.309 2.2155e+18 145.829 137.858 136.831 7477.1 -0.119497 -0.337079 2.21531e+18 0 0 3.07049e+13 1.53525e+14 0 
2481 0 144.189 2.21366e+18 144.215 137.245 136.767 7477.53 0.496127 -0.307129 2.21333e+18 0 0 4.60574e+13 2.76344e+14 0 
2485 0 144.022 2.21109e+18 150.808 138.683 136.587 7477.14 -0.232677 0.0836457 2.21058e+18 0 0 9.21147e+13 4.14516e+14 0 
2489 0 144.13 2.21275e+18 158.983 139.068 137.009 7476.22 0.447912 0.630604 2.21184e+18 0 0 2.30287e+14 6.60156e+14 1.53525e+13 
2493 0 144.509 2.21857e+18 174.377 140.065 137.232 7475.81 0.0993716 0.579037 2.21702e+18 1.53525e+13 0 3.53106e+14 1.13608e+15 4.60574e+13 
2497 0 144.845 2.22373e+18 194.655 143.808 137.504 7474.08 -0.598171 0.375714 2.22116e+18 1.53525e+13 0 5.21983e+14 2.02652e+15 0 
2605 0 144.061 2.21169e+18 141.392 137.685 136.663 7477.18 -0.501743 0.583296 2.21151e+18 0 0 1.53525e+13 1.53525e+14 1.53525e+13 
2609 0 144.484 2.21818e+18 140.936 137.297 136.71 7476.44 -0.610581 0.2006 2.21811e+18 0 0 1.53525e+13 6.14098e+13 0 
2613 0 144.271 2.21491e+18 139.531 137.689 136.184 7476.94 0.490407 0.449587 2.21485e+18 0 0 0 6.14098e+13 0 
2617 0 144.071 2.21184e+18 143.286 137.213 136.765 7477.6 -0.344652 0.105948 2.2116e+18 0 0 4.60574e+13 1.84229e+14 1.53525e+13 
2621 0 144.008 2.21088e+18 148.359 138.248 136.861 7476.37 0.0656067 -0.596854 2.21048e+18 0 0 9.21147e+13 3.07049e+14 0 
2625 0 144.809 2.22317e+18 161.834 138.648 136.988 7475.63 0.427299 0.223819 2.22234e+18 0 0 2.14934e+14 5.98746e+14 1.53525e+13 
2629 0 144.361 2.2163e+18 178.867 139.732 136.993 7475.17 -0.00227141 -0.21717 2.2149e+18 1.53525e+13 0 2.91697e+14 1.04397e+15 4.60574e+13 
2633 0 144.386 2.21668e+18 184.999 141.071 137.133 7474.88 -0.369015 -0.206645 2.21487e+18 0 0 2.91697e+14 1.47384e+15 4.60574e+13 
2637 0 144.733 2.22201e+18 227.774 146.536 138.536 7471.58 0.659862 -0.0813912 2.21772e+18 0 0 1.09002e+15 3.1012e+15 9.21147e+13 
2741 0 144.462 2.21785e+18 139.245 137.923 136.566 7477.74 -0.547387 0.208186 2.21777e+18 0 0 1.53525e+13 6.14098e+13 0 
2745 0 144.157 2.21316e+18 137.539 136.659 136.898 7476.45 -0.086415 0.584984 2.21315e+18 0 0 0 1.53525e+13 0 
2749 0 143.997 2.21071e+18 142.567 136.931 136.33 7476.37 -0.350752 0.557235 2.21055e+18 0 0 0 1.53525e+14 0 
2753 0 144.067 2.21178e+18 142.47 138.161 136.137 7477.37 -0.0103536 0.161378 2.21164e+18 0 0 0 1.38172e+14 0 
2757 0 144.761 2.22244e+18 146.59 139.115 136.93 7476.51 -0.484637 0.784405 2.22207e+18 1.53525e+13 0 3.07049e+13 3.07049e+14 1.53525e+13 
2761 0 144.506 2.21852e+18 157.013 140.532 137.04 7476.24 0.209235 -0.179131 2.21786e+18 0 0 2.30287e+14 3.99164e+14 3.07049e+13 
2765 0 143.437 2.20211e+18 160.231 138.948 136.603 7475.39 0.803333 0.639982 2.201e+18 0 0 2.45639e+14 8.29033e+14 3.07049e+13 
2769 0 144.147 2.21301e+18 188.455 140.631 137.357 7473.96 0.0643134 0.0961935 2.21072e+18 0 0 4.60574e+14 1.76553e+15 6.14098e+13 
2773 0 144.539 2.21903e+18 211.244 144.896 137.112 7473.73 0.375537 0.334616 2.21587e+18 1.53525e+13 0 6.60156e+14 2.47175e+15 1.53525e+13 
2881 0 144.321 2.21568e+18 138.658 137.696 136.717 7477.83 -0.188255 0.450837 2.21562e+18 0 0 1.53525e+13 3.07049e+13 1.53525e+13 
2885 0 144.196 2.21376e+18 141.132 137.852 136.098 7476.71 -0.284671 -0.122157 2.21362e+18 0 0 3.07049e+13 1.07467e+14 0 
2889 0 144.415 2.21712e+18 142.067 138.351 136.483 7477.21 0.0288041 -0.748348 2.21688e+18 1.53525e+13 0 6.14098e+13 1.53525e+14 1.53525e+13 
2893 0 144.163 2.21326e+18 140.837 138.492 136.241 7476.94 -0.0879688 0.517802 2.21306e+18 0 0 1.53525e+13 1.68877e+14 1.53525e+13 
2897 0 143.944 2.20989e+18 153.108 137.728 136.586 7476.22 0.520238 -0.458332 2.20931e+18 0 0 1.2282e+14 4.29869e+14 3.07049e+13 
2901 0 144.458 2.21779e+18 157.516 138.269 136.823 7476.51 -0.448459 -1.05771 2.21683e+18 0 0 1.38172e+14 8.1368e+14 0 
2905 0 144.99 2.22595e+18 175.531 141.378 137.018 7475.21 0.0453658 0.205395 2.22449e+18 0 0 3.22402e+14 1.09002e+15 4.60574e+13 
2909 0 144.131 2.21276e+18 187.438 143.865 137.719 7474.38 0.260199 -0.58804 2.21029e+18 0 0 5.52688e+14 1.85765e+15 6.14098e+13 
3017 0 144.476 2.21806e+18 140.711 137.43 136.433 7477.51 -0.959176 -0.085231 2.21798e+18 0 0 1.53525e+13 6.14098e+13 0 
3021 0 144.331 2.21584e+18 140.413 138.207 136.762 7477.19 -1.13992 0.165061 2.21574e+18 0 0 1.53525e+13 7.67623e+13 0 
3025 0 143.945 2.20991e+18 143.738 137.575 136.634 7477.36 -0.166146 -0.0820483 2.20965e+18 0 0 4.60574e+13 2.14934e+14 0 
3029 0 144.071 2.21184e+18 145.275 137.589 136.536 7476.42 -0.595656 0.300717 2.21161e+18 0 0 1.53525e+13 2.14934e+14 0 
3033 0 144.079 2.21197e+18 148.011 138.177 136.724 7476.44 -0.264644 -0.282921 2.21151e+18 0 0 1.07467e+14 3.37754e+14 1.53525e+13 
3037 0 144.205 2.2139e+18 156.133 138.321 136.962 7475.79 0.252165 -0.0776167 2.21321e+18 0 0 1.2282e+14 5.52688e+14 1.53525e+13 
3041 0 144.654 2.22079e+18 169.854 140.44 136.902 7475.79 -0.056206 -0.169586 2.21952e+18 3.07049e+13 0 2.76344e+14 9.67205e+14 0 
3045 0 144.576 2.2196e+18 189.999 142.183 137.613 7475.21 0.752853 -0.316192 2.21712e+18 1.53525e+13 0 5.98746e+14 1.78088e+15 7.67623e+13 
3153 0 144.286 2.21514e+18 140.57 137.365 136.611 7477.54 -0.130991 0.656828 2.21508e+18 0 0 0 6.14098e+13 0 
3157 0 144.367 2.21639e+18 143.076 137.103 136.381 7477.68 -0.0118548 -0.0256968 2.21627e+18 0 0 0 1.2282e+14 0 
3161 0 143.776 2.20731e+18 141.464 138.117 136.528 7477.1 -0.584775 0.0513731 2.20715e+18 0 0 4.60574e+13 9.21147e+13 3.07049e+13 
3165 0 143.847 2.2084e+18 140.56 137.975 136.619 7477.36 -0.861025 1.13954 2.20824e+18 0 0 3.07049e+13 1.2282e+14 1.53525e+13 
3169 0 144.272 2.21493e+18 145.566 138.117 136.72 7476.7 -0.396673 0.2266 2.21467e+18 0 0 1.53525e+13 2.30287e+14 1.53525e+13 
3173 0 144.053 2.21157e+18 154.967 139.632 136.843 7477.18 -0.328967 0.485918 2.21088e+18 1.53525e+13 0 7.67623e+13 5.68041e+14 3.07049e+13 
3177 0 143.683 2.20589e+18 163.639 139.528 137.012 7476.08 -0.44405 1.07118 2.20486e+18 3.07049e+13 0 1.84229e+14 8.1368e+14 0 
3181 0 144.508 2.21855e+18 180.922 143.628 137.505 7474.32 0.129821 0.170596 2.21657e+18 0 0 4.60574e+14 1.47384e+15 4.60574e+13 
3185 0 144.313 2.21556e+18 215.416 146.031 137.945 7473.05 0.2146 0.438783 2.21194e+18 3.07049e+13 0 8.7509e+14 2.64062e+15 7.67623e+13 
3289 0 144.291 2.21522e+18 140.825 138.244 136.597 7477.35 0.0447058 0.992988 2.21516e+18 0 0 1.53525e+13 4.60574e+13 0 
3293 0 144.161 2.21323e+18 137.339 137.699 136.769 7477.39 -0.126938 0.605237 2.21321e+18 0 0 1.53525e+13 0 0 
3297 0 144.238 2.21441e+18 142.526 137.571 136.73 7477.49 -0.396742 -0.134904 2.21425e+18 0 0 0 1.53525e+14 0 
3301 0 143.798 2.20765e+18 142.451 138.32 136.359 7477.38 -0.110076 1.14289 2.20744e+18 0 0 4.60574e+13 1.68877e+14 0 
3305 0 144.167 2.21332e+18 145.034 139.032 136.608 7477.4 -0.687275 0.617334 2.21304e+18 0 0 3.07049e+13 2.45639e+14 0 
3309 0 144.245 2.21451e+18 149.92 137.731 136.55 7477.31 0.349548 -0.545037 2.21396e+18 0 0 9.21147e+13 4.45221e+14 1.53525e+13 
3313 0 144.293 2.21525e+18 157.188 139.767 136.981 7476.24 0.462171 0.578484 2.21447e+18 1.53525e+13 0 1.68877e+14 5.98746e+14 0 
3317 0 143.946 2.20992e+18 172.448 140.654 137.181 7475.03 -0.004799 0.747478 2.2084e+18 3.07049e+13 0 2.30287e+14 1.24355e+15 1.53525e+13 
3321 0 144.533 2.21894e+18 197.544 144.502 137.842 7473.83 1.14283 -0.282998 2.2163e+18 1.53525e+13 0 5.83393e+14 1.99582e+15 4.60574e+13 
3429 0 144.075 2.21191e+18 138.071 137.63 136.357 7477.71 0.223173 -0.207024 2.21187e+18 0 0 0 3.07049e+13 0 
3433 0 144.74 2.22211e+18 138.969 136.908 136.289 7476.44 -0.815041 1.36501 2.22208e+18 0 0 0 3.07049e+13 0 
3437 0 144.527 2.21884e+18 141.736 137.673 136.718 7477.31 -0.349753 0.469456 2.21864e+18 0 0 3.07049e+13 1.53525e+14 1.53525e+13 
3441 0 143.764 2.20713e+18 140.646 138.987 136.816 7477.13 -0.0272648 -0.305036 2.2069e+18 1.53525e+13 0 7.67623e+13 1.38172e+14 0 
3445 0 144.812 2.22322e+18 147.591 138.382 136.372 7477.05 -0.56516 0.809571 2.22282e+18 0 0 9.21147e+13 3.07049e+14 0 
3449 0 144.494 2.21834e+18 157.083 138.728 137.059 7476.35 -0.399087 0.108264 2.21748e+18 0 0 1.99582e+14 6.60156e+14 0 
3453 0 143.874 2.20882e+18 163.026 139.655 137.074 7475.53 -0.131679 -0.475852 2.20768e+18 0 0 1.99582e+14 8.90442e+14 4.60574e+13 
3457 0 144.188 2.21364e+18 190.773 141.953 137.092 7474.66 0.697397 1.36148 2.21123e+18 0 0 5.68041e+14 1.76553e+15 7.67623e+13 
3565 0 144.259 2.21473e+18 138.551 137.779 136.31 7477.23 0.022005 0.168705 2.2147e+18 0 0 0 1.53525e+13 1.53525e+13 
3569 0 144.739 2.2221e+18 139.74 137.626 136.579 7476.85 -0.359331 0.0900594 2.22201e+18 0 0 0 9.21147e+13 0 
3573 0 144.527 2.21884e+18 141.559 138.576 136.745 7476.88 0.344079 0.600199 2.21869e+18 1.53525e+13 0 3.07049e+13 1.07467e+14 0 
3577 0 144.105 2.21237e+18 145.536 138.376 136.667 7476.31 0.368699 0.491697 2.21209e+18 0 0 6.14098e+13 2.14934e+14 0 
3581 0 144.239 2.21442e+18 148.051 139.291 137.006 7476.55 -0.811734 0.128819 2.21398e+18 1.53525e+13 0 9.21147e+13 3.37754e+14 0 
3585 0 144.272 2.21493e+18 150.48 138.406 136.758 7476.9 0.226306 -0.0185046 2.2143e+18 0 0 1.07467e+14 5.21983e+14 0 
3589 0 144.303 2.21541e+18 158.868 140.396 137.122 7475.35 0.885302 -0.269469 2.21424e+18 3.07049e+13 0 3.37754e+14 7.98328e+14 0 
3593 0 144.339 2.21596e+18 179.768 141.645 137.536 7474.55 -0.159422 -0.0662313 2.21416e+18 0 0 4.29869e+14 1.36637e+15 0 
3701 0 144.25 2.21459e+18 137.816 137.901 136.654 7477.72 0.12321 -0.437784 2.21456e+18 0 0 0 3.07049e+13 0 
3705 0 144.618 2.22024e+18 142.504 137.207 136.082 7477.29 -0.228276 -0.294987 2.2201e+18 0 0 0 1.38172e+14 0 
3709 0 144.509 2.21857e+18 144.098 137.898 136.41 7476.99 0.358919 0.502351 2.21837e+18 0 0 0 1.99582e+14 0 
3713 0 143.936 2.20977e+18 144.787 138.047 136.582 7476.56 0.29065 0.0304456 2.20946e+18 1.53525e+13 0 6.14098e+13 2.30287e+14 0 
3717 0 144.656 2.22082e+18 146.825 138.734 136.948 7476.81 -0.669249 0.324761 2.22043e+18 1.53525e+13 0 1.07467e+14 2.76344e+14 0 
3721 0 143.932 2.20971e+18 149.999 140.064 137.033 7476.13 0.731496 0.184278 2.20887e+18 0 0 2.76344e+14 5.68041e+14 0 