ITEM: TIMESTEP
18000
ITEM: NUMBER OF CELLS
10393
ITEM: BOX BOUNDS oo ao pp
-10 10
0 10
-0.5 0.5
ITEM: CELLS id proc f_avg_n f_avg_nrho f_avg_temp_tra f_avg_temp_rot f_avg_temp_vib f_avg_vel[1] f_avg_vel[2] f_avg_vel[3] f_avg_nrho_CO2 f_avg_nrho_O2 f_avg_nrho_C2 f_avg_nrho_CO f_avg_nrho_O f_avg_nrho_C 
1 0 145.406 2.23234e+18 137.579 137.961 136.517 7479.08 6.06714 -0.44549 2.23234e+18 0 0 0 0 0 
5 0 154.024 2.36465e+18 139.715 136.844 136.265 7477.01 25.6977 -0.551608 2.36465e+18 0 0 0 0 0 
9 0 160.6 2.4656e+18 149.474 137.811 136.977 7476.55 33.8765 0.0150771 2.4653e+18 0 0 6.14098e+13 2.45639e+14 0 
13 0 164.002 2.51783e+18 145.001 138.825 136.209 7477.57 33.6103 -0.735132 2.51746e+18 0 0 3.07049e+13 3.37754e+14 0 
17 0 166.58 2.55741e+18 154.795 137.645 136.581 7476.86 32.0236 0.546152 2.55658e+18 0 0 6.14098e+13 7.67623e+14 0 
21 0 165.952 2.54777e+18 146.179 140.329 137.356 7475.92 28.4783 -0.57373 2.547e+18 0 0 3.68459e+14 3.99164e+14 0 
25 0 164.32 2.52272e+18 176.22 145.194 137.722 7475.94 23.0849 1.63452 2.52032e+18 3.07049e+13 0 4.60574e+14 1.9037e+15 0 
29 0 162.474 2.49437e+18 185.418 146.929 136.628 7474.13 17.8863 -0.174539 2.4918e+18 0 0 6.14098e+14 1.9037e+15 6.14098e+13 
33 0 159.602 2.45028e+18 232.933 151.098 138.517 7470.62 15.3611 -2.49134 2.44601e+18 0 0 1.01326e+15 3.1319e+15 1.2282e+14 
141 0 144.206 2.21392e+18 143.173 137.769 136.132 7476.92 -0.923198 -0.277901 2.2137e+18 0 0 0 2.14934e+14 0 
145 0 143.722 2.20649e+18 142.424 137.835 136.458 7476.75 0.70203 -0.360843 2.20636e+18 0 0 0 9.21147e+13 3.07049e+13 
149 0 144.1 2.21229e+18 146.083 136.922 136.489 7476.64 0.203654 -0.128293 2.2121e+18 0 0 3.07049e+13 1.53525e+14 0 
153 0 144.8 2.22304e+18 147.691 138.941 136.673 7476.43 0.259729 1.09202 2.22254e+18 0 0 1.2282e+14 3.68459e+14 0 
157 0 144.476 2.21806e+18 168.85 142.037 136.628 7474.94 0.62902 -0.647553 2.2165e+18 0 0 3.37754e+14 1.19749e+15 3.07049e+13 
161 0 146.148 2.24373e+18 184.687 139.924 137.444 7474.83 2.63001 -0.283415 2.24216e+18 0 0 3.07049e+14 1.19749e+15 6.14098e+13 
165 0 147.154 2.25918e+18 194.075 142.045 138.171 7473.31 4.88811 -0.446927 2.25684e+18 0 0 4.60574e+14 1.68877e+15 1.84229e+14 
169 0 146.89 2.25512e+18 231.409 147.526 138.162 7471.06 5.70561 1.09871 2.2507e+18 0 0 8.90442e+14 3.50036e+15 3.07049e+13 
277 0 144.06 2.21167e+18 145.192 138.774 136.266 7478.49 -0.865286 -0.251049 2.21152e+18 0 0 6.14098e+13 9.21147e+13 0 
281 0 144.282 2.21508e+18 152.484 139.634 136.131 7476.79 -0.0200945 -0.383068 2.21478e+18 0 0 1.2282e+14 1.53525e+14 3.07049e+13 
285 0 144.36 2.21628e+18 158.75 137.983 135.98 7476.76 -1.64193 2.21374 2.21576e+18 0 0 1.2282e+14 3.99164e+14 0 
289 0 143.352 2.20081e+18 148.975 139.299 136.608 7476.92 0.922846 0.587657 2.20028e+18 0 0 2.76344e+14 2.45639e+14 0 
293 0 144.608 2.22009e+18 146.219 139.41 136.527 7476.98 -0.830108 0.353183 2.21963e+18 0 0 1.53525e+14 3.07049e+14 0 
297 0 144.036 2.21131e+18 165.717 139.362 135.993 7475.87 0.370767 -0.33803 2.20974e+18 0 0 3.07049e+14 1.2589e+15 0 
301 0 144.004 2.21082e+18 184.836 141.945 137.205 7474.91 1.28853 -0.121183 2.20817e+18 0 0 4.91279e+14 2.11864e+15 3.07049e+13 
305 0 144.438 2.21748e+18 220.625 146.886 138.671 7471.22 0.668419 0.656531 2.21395e+18 0 0 8.90442e+14 2.57921e+15 6.14098e+13 
413 0 144.408 2.21702e+18 140.818 136.749 136.518 7476.56 0.382364 -0.490563 2.21696e+18 0 0 0 6.14098e+13 0 
417 0 144.96 2.22549e+18 143.472 137.34 136.823 7477.11 0.452341 -0.162242 2.22531e+18 0 0 3.07049e+13 1.53525e+14 0 
421 0 144.258 2.21471e+18 143.369 138.243 136.797 7477.1 -0.00380005 -0.412132 2.21453e+18 0 0 6.14098e+13 1.2282e+14 0 
425 0 144.326 2.21576e+18 146.81 138.062 136.497 7475.8 0.0865668 -0.408457 2.21536e+18 0 0 6.14098e+13 3.07049e+14 3.07049e+13 
429 0 143.784 2.20744e+18 171.713 141.901 136.827 7475.63 0.325951 -0.508704 2.20621e+18 0 0 3.07049e+14 9.21147e+14 0 
433 0 145.422 2.23258e+18 167.468 141.375 137.365 7476.32 -0.324576 0.47702 2.23126e+18 0 0 3.37754e+14 9.51852e+14 3.07049e+13 
437 0 144.622 2.2203e+18 198.172 142.553 137.579 7473.7 -0.585175 0.970476 2.21821e+18 0 0 4.91279e+14 1.56595e+15 3.07049e+13 
441 0 143.484 2.20283e+18 221.467 143.382 138.286 7472.81 -0.454595 0.279823 2.19964e+18 0 0 5.83393e+14 2.57921e+15 3.07049e+13 
445 0 145.118 2.22792e+18 313.055 150.492 138.387 7467.36 -0.238767 0.0725234 2.2207e+18 0 0 1.68877e+15 5.37336e+15 1.53525e+14 
549 0 144.478 2.21809e+18 144.088 137.893 136.737 7477.46 -1.03166 0.166116 2.218e+18 0 0 3.07049e+13 6.14098e+13 0 
553 0 143.766 2.20716e+18 141.801 136.487 136.424 7477.18 -0.272468 0.0177081 2.20692e+18 0 0 3.07049e+13 1.84229e+14 3.07049e+13 
557 0 144.436 2.21745e+18 140.311 137.857 136.351 7476.16 0.320585 1.146 2.21717e+18 0 0 9.21147e+13 1.84229e+14 0 
561 0 144.8 2.22304e+18 142.117 137.764 136.716 7477.3 0.140918 -0.00249948 2.22273e+18 0 0 9.21147e+13 1.84229e+14 3.07049e+13 
565 0 144.468 2.21794e+18 152.128 138.442 136.495 7476.61 0.338557 -0.716318 2.21729e+18 0 0 1.2282e+14 5.21983e+14 0 
569 0 144.504 2.21849e+18 156.853 140.039 136.411 7476.15 0.204114 0.0228153 2.2176e+18 0 0 2.76344e+14 5.21983e+14 9.21147e+13 
573 0 145.13 2.2281e+18 190.388 141.63 137.128 7474.66 0.842254 0.709154 2.22592e+18 0 0 4.60574e+14 1.71948e+15 0 
577 0 144.472 2.218e+18 199.681 141.511 137.89 7473.79 -0.820122 -0.42559 2.21505e+18 3.07049e+13 0 4.91279e+14 2.33357e+15 9.21147e+13 
581 0 144.64 2.22058e+18 269.947 152.304 139.65 7469.02 0.371175 -0.00276294 2.21419e+18 3.07049e+13 0 1.53525e+15 4.66715e+15 1.53525e+14 
689 0 144.564 2.21941e+18 141.306 137.204 137.187 7477.53 -1.03879 -0.665234 2.21935e+18 0 0 3.07049e+13 3.07049e+13 0 
693 0 144.426 2.21729e+18 147.836 137.729 136.628 7476.98 0.047648 1.41465 2.21705e+18 0 0 0 2.14934e+14 3.07049e+13 
697 0 143.82 2.20799e+18 147.568 139.29 136.32 7477.69 0.053899 0.306739 2.20768e+18 0 0 0 2.76344e+14 3.07049e+13 
701 0 143.596 2.20455e+18 164.131 138.17 137.166 7475.7 -0.383766 0.503368 2.20385e+18 0 0 9.21147e+13 6.14098e+14 0 
705 0 143.772 2.20725e+18 147.396 140.265 137.247 7476.15 -0.433511 -0.47428 2.20652e+18 0 0 2.14934e+14 4.60574e+14 6.14098e+13 
709 0 144.628 2.22039e+18 170.859 139.21 136.712 7475.9 -0.752209 0.695135 2.21889e+18 0 0 3.37754e+14 1.13608e+15 3.07049e+13 
713 0 144.626 2.22036e+18 211.632 141.587 138.035 7472.5 0.205479 0.0349182 2.21742e+18 0 0 4.91279e+14 2.33357e+15 1.2282e+14 
717 0 144.406 2.21699e+18 239.219 145.645 138.177 7470.9 0.314627 0.0896859 2.213e+18 3.07049e+13 0 9.82557e+14 2.88626e+15 9.21147e+13 
825 0 144.026 2.21115e+18 141.87 137.196 136.484 7477.42 -0.260239 -0.449658 2.21106e+18 0 0 0 9.21147e+13 0 
829 0 144.334 2.21588e+18 145.314 137.513 135.947 7476.02 -0.950711 0.0797713 2.2157e+18 0 0 3.07049e+13 1.53525e+14 0 
833 0 144.724 2.22187e+18 148.911 137.563 136.937 7477.06 -0.687637 -0.198704 2.22156e+18 0 0 0 3.07049e+14 0 
837 0 143.966 2.21023e+18 148.288 137.333 136.785 7477.85 0.425702 0.386965 2.21002e+18 0 0 0 2.14934e+14 0 
841 0 144.394 2.2168e+18 156.77 139.727 136.4 7476.58 0.129077 -0.521505 2.21588e+18 0 0 1.53525e+14 7.67623e+14 0 
845 0 143.914 2.20943e+18 160.148 140.832 137.305 7476.7 0.902421 0.340556 2.20836e+18 0 0 2.45639e+14 8.29033e+14 0 
849 0 144.444 2.21757e+18 205.048 141.412 137.036 7473.82 0.520101 1.78104 2.21518e+18 3.07049e+13 0 4.60574e+14 1.75018e+15 1.53525e+14 
853 0 144.052 2.21155e+18 228.44 144.553 137.206 7472.69 0.677831 0.299955 2.20759e+18 0 0 1.04397e+15 2.82485e+15 9.21147e+13 
961 0 144.882 2.22429e+18 142.919 137.241 136.486 7477.42 0.775065 -0.191829 2.22417e+18 0 0 0 9.21147e+13 3.07049e+13 
965 0 143.504 2.20314e+18 144.945 137.462 136.645 7476.6 0.63782 -0.563023 2.20289e+18 0 0 0 2.14934e+14 3.07049e+13 
969 0 144.126 2.21269e+18 147.308 136.706 136.994 7476.54 0.481551 -0.120751 2.21244e+18 0 0 3.07049e+13 2.14934e+14 0 
973 0 144.608 2.22009e+18 151.665 138.41 137.002 7476.23 0.274232 -0.0319253 2.21966e+18 0 0 3.07049e+13 3.68459e+14 3.07049e+13 
977 0 144.564 2.21941e+18 155.054 138.818 136.946 7476.55 0.709953 -0.426613 2.21883e+18 0 0 9.21147e+13 4.29869e+14 6.14098e+13 
981 0 143.902 2.20925e+18 160.695 138.909 137.837 7475.63 -0.558424 0.422029 2.2083e+18 0 0 2.45639e+14 7.06213e+14 0 
985 0 144.166 2.2133e+18 188.503 142.986 137.326 7474.63 0.0402784 -0.00404311 2.21128e+18 3.07049e+13 0 4.60574e+14 1.53525e+15 0 
989 0 145.018 2.22638e+18 221.434 145.758 138.086 7471.86 -0.0430502 0.265551 2.22282e+18 3.07049e+13 0 7.67623e+14 2.67133e+15 9.21147e+13 
993 0 144.288 2.21518e+18 265.413 151.541 139.259 7469.93 0.549057 0.421655 2.2091e+18 9.21147e+13 0 1.56595e+15 4.29869e+15 1.2282e+14 
1097 0 143.93 2.20968e+18 144.2 137.845 136.266 7477.93 -0.865625 0.941984 2.20956e+18 0 0 0 1.2282e+14 0 
1101 0 143.604 2.20467e+18 138.528 136.39 136.722 7477.32 0.345346 1.07027 2.20464e+18 0 0 0 3.07049e+13 0 
1105 0 144.02 2.21106e+18 143.39 139.141 136.556 7477.16 -0.0247178 -0.387795 2.21088e+18 0 0 3.07049e+13 1.53525e+14 0 
1109 0 143.952 2.21002e+18 144.175 137.968 136.553 7477.53 -0.209457 0.271015 2.20971e+18 0 0 6.14098e+13 2.45639e+14 0 
1113 0 144.214 2.21404e+18 154.318 138.723 137.016 7478.22 -0.672357 0.522047 2.21346e+18 0 0 1.84229e+14 3.99164e+14 0 
1117 0 145.202 2.22921e+18 168.533 138.122 136.418 7476.83 0.576289 -1.3445 2.22822e+18 0 0 1.84229e+14 7.98328e+14 0 
1121 0 144.656 2.22082e+18 166.798 139.559 136.811 7476.69 -0.737694 -0.174633 2.21941e+18 0 0 3.99164e+14 1.01326e+15 0 
1125 0 143.724 2.20652e+18 206.212 143.797 137.632 7474.25 -0.142862 1.43571 2.20418e+18 0 0 4.29869e+14 1.9037e+15 0 
1129 0 145.148 2.22838e+18 252.309 144.415 137.893 7470.93 1.12445 -0.256988 2.22386e+18 6.14098e+13 0 8.29033e+14 3.59247e+15 3.07049e+13 
1237 0 145.054 2.22694e+18 141.547 137.347 136.816 7477.36 -1.84328 -0.0368025 2.22684e+18 0 0 0 6.14098e+13 3.07049e+13 
1241 0 144.054 2.21158e+18 140.316 137.736 136.261 7476.83 -0.134174 -0.764685 2.21134e+18 0 0 9.21147e+13 1.53525e+14 0 
1245 0 144.65 2.22073e+18 147.738 138.309 136.38 7477.28 0.610627 0.732929 2.22046e+18 0 0 3.07049e+13 2.45639e+14 0 
1249 0 144.686 2.22129e+18 145.334 137.68 137.173 7476.52 -0.806987 0.222398 2.22098e+18 0 0 6.14098e+13 2.45639e+14 0 
1253 0 144.488 2.21825e+18 155.234 137.717 136.397 7475.89 0.839546 -0.501273 2.21754e+18 0 0 6.14098e+13 5.83393e+14 6.14098e+13 
1257 0 144.112 2.21247e+18 170.207 141.333 136.135 7475.19 0.325451 0.690598 2.21097e+18 3.07049e+13 0 3.99164e+14 9.82557e+14 9.21147e+13 
1261 0 145.204 2.22924e+18 200.754 143.847 137.807 7473.89 0.519467 -0.318985 2.22694e+18 0 0 7.06213e+14 1.59666e+15 0 
1265 0 144.99 2.22595e+18 252.648 143.246 138.511 7471.59 -0.0963765 0.0576753 2.22181e+18 0 0 1.07467e+15 3.03979e+15 3.07049e+13 
1373 0 144.262 2.21478e+18 146.928 137.281 136.919 7477.28 -0.310877 0.81423 2.21465e+18 0 0 6.14098e+13 6.14098e+13 0 
1377 0 144.28 2.21505e+18 143.41 136.949 136.692 7477.45 0.547235 0.281298 2.21496e+18 0 0 3.07049e+13 6.14098e+13 0 
1381 0 144.226 2.21422e+18 146.34 136.687 135.947 7476.56 -0.255378 0.38158 2.21401e+18 0 0 0 2.14934e+14 0 
1385 0 144.276 2.21499e+18 147.557 138.911 136.632 7477.04 -0.359761 0.347665 2.21462e+18 0 0 9.21147e+13 2.76344e+14 0 
1389 0 143.798 2.20765e+18 170.386 139.547 137.211 7476.25 -0.0628499 0.479479 2.20645e+18 0 0 2.14934e+14 9.82557e+14 0 
1393 0 144.54 2.21904e+18 162.411 141.388 137.145 7475.56 -0.193452 0.208064 2.21794e+18 3.07049e+13 0 3.37754e+14 6.44803e+14 9.21147e+13 
1397 0 145.056 2.22697e+18 179.605 141.053 137.191 7475.48 -0.177363 1.56375 2.22515e+18 0 0 3.99164e+14 1.35102e+15 6.14098e+13 
1401 0 144.888 2.22439e+18 222.139 147.679 137.972 7473.03 0.709976 0.725866 2.22107e+18 3.07049e+13 0 8.29033e+14 2.36428e+15 9.21147e+13 
1509 0 144.636 2.22052e+18 138.333 137.709 135.844 7476.63 0.0758534 -0.809209 2.22049e+18 0 0 0 3.07049e+13 0 
1513 0 143.908 2.20934e+18 138.448 137.047 136.711 7478.29 -1.69992 0.162107 2.20925e+18 0 0 3.07049e+13 6.14098e+13 0 
1517 0 144.496 2.21837e+18 143.936 137.764 137.093 7477.37 -0.056143 0.509988 2.21821e+18 0 0 0 1.53525e+14 0 
1521 0 145.19 2.22902e+18 150.287 136.93 135.974 7476.75 0.521474 -0.13833 2.22865e+18 0 0 3.07049e+13 3.37754e+14 0 
1525 0 143.718 2.20642e+18 157.536 139.385 136.416 7476.75 -0.792417 0.783442 2.20566e+18 0 0 1.84229e+14 5.52688e+14 3.07049e+13 
1529 0 143.462 2.20249e+18 180.331 141.717 137.57 7475.22 -0.404723 0.769066 2.2013e+18 0 0 3.68459e+14 7.67623e+14 6.14098e+13 
1533 0 144.682 2.22122e+18 183.203 139.673 137.023 7475.42 1.06797 -0.0383573 2.21926e+18 0 0 3.99164e+14 1.53525e+15 3.07049e+13 
1537 0 144.716 2.22175e+18 215.108 142.756 137.649 7473.92 -0.471638 0.0675013 2.21855e+18 3.07049e+13 0 5.83393e+14 2.54851e+15 3.07049e+13 
1541 0 144.284 2.21511e+18 289.734 153.16 138.701 7468.52 1.27552 0.691216 2.20974e+18 0 0 1.35102e+15 3.93023e+15 9.21147e+13 
1645 0 144.058 2.21164e+18 140.288 137.848 136.504 7477.62 -0.164552 -0.346343 2.21158e+18 0 0 0 6.14098e+13 0 
1649 0 143.844 2.20836e+18 142.28 137.616 136.485 7476.35 -0.138049 0.860097 2.20824e+18 0 0 3.07049e+13 9.21147e+13 0 
1653 0 144.444 2.21757e+18 145.112 139.497 136.647 7477.59 0.162339 -1.05729 2.21729e+18 0 0 6.14098e+13 1.84229e+14 3.07049e+13 
1657 0 144.362 2.21631e+18 144.79 139.576 136.446 7477.03 -0.606077 -0.784316 2.216e+18 0 0 6.14098e+13 2.45639e+14 0 
1661 0 144.178 2.21349e+18 145.85 138.448 136.416 7476.22 -0.546824 0.103101 2.21312e+18 0 0 9.21147e+13 2.45639e+14 3.07049e+13 
1665 0 144.984 2.22586e+18 152.508 138.248 136.533 7477.15 0.630708 -0.592537 2.22546e+18 0 0 9.21147e+13 3.07049e+14 0 
1669 0 144.81 2.22319e+18 166.519 140.861 136.696 7475.7 -0.10064 -0.990739 2.22218e+18 0 0 1.53525e+14 7.98328e+14 6.14098e+13 
1673 0 144.778 2.2227e+18 202.129 145.583 137.432 7473.53 1.08626 -0.435949 2.22003e+18 0 0 4.91279e+14 2.14934e+15 3.07049e+13 
1677 0 144.176 2.21346e+18 214.345 145.189 138.532 7472.92 1.35016 -1.73705 2.20992e+18 0 0 9.21147e+14 2.4871e+15 1.2282e+14 
1785 0 144.344 2.21603e+18 140.974 138.262 136.447 7476.28 0.308652 -0.476149 2.21591e+18 0 0 3.07049e+13 9.21147e+13 0 
1789 0 144.466 2.21791e+18 141.47 137.162 136.371 7476.97 0.829409 0.745451 2.21782e+18 0 0 0 6.14098e+13 3.07049e+13 
1793 0 144.12 2.2126e+18 141.214 137.01 136.552 7476.49 0.551335 0.370306 2.21235e+18 0 0 0 1.84229e+14 6.14098e+13 
1797 0 144.958 2.22546e+18 142.784 138.877 136.522 7477.02 -0.061823 0.258081 2.22506e+18 0 0 9.21147e+13 3.07049e+14 0 
1801 0 144.276 2.21499e+18 154.917 139.141 136.125 7476.3 0.961002 0.516442 2.21428e+18 0 0 6.14098e+13 6.14098e+14 3.07049e+13 
1805 0 145.58 2.23501e+18 178.437 139.788 137.381 7475.57 0.344106 0.474577 2.2336e+18 0 0 3.07049e+14 1.07467e+15 3.07049e+13 
1809 0 145.058 2.227e+18 172.743 141.207 137.598 7475.5 -0.648577 -0.408281 2.22512e+18 0 0 4.91279e+14 1.32031e+15 6.14098e+13 
1813 0 143.922 2.20956e+18 223.946 146.639 138.254 7471.94 0.575346 -0.467662 2.20593e+18 0 0 1.10538e+15 2.42569e+15 9.21147e+13 
1921 0 143.828 2.20811e+18 137.211 137.508 137.134 7476.82 -0.817329 -0.117642 2.20811e+18 0 0 0 0 0 
1925 0 144.374 2.2165e+18 139.154 137.754 136.585 7476.62 -0.455175 -0.263936 2.21643e+18 0 0 0 6.14098e+13 0 
1929 0 144.018 2.21103e+18 137.728 137.28 136.12 7476.19 -0.119763 0.247603 2.211e+18 0 0 0 3.07049e+13 0 
1933 0 143.396 2.20148e+18 145.686 138.91 136.66 7476.77 -1.35729 0.364284 2.2012e+18 0 0 6.14098e+13 1.84229e+14 3.07049e+13 
1937 0 145.176 2.22881e+18 161.893 140.422 137.509 7476.24 0.403795 -0.0952817 2.22764e+18 0 0 4.29869e+14 6.44803e+14 9.21147e+13 
1941 0 144.252 2.21462e+18 156.77 137.879 136.017 7476.16 -0.667349 0.0293089 2.21401e+18 0 0 9.21147e+13 4.91279e+14 3.07049e+13 
1945 0 144.236 2.21438e+18 182.323 142.144 136.948 7474.46 1.16044 -0.688003 2.21281e+18 0 0 3.07049e+14 1.13608e+15 1.2282e+14 
1949 0 143.616 2.20486e+18 211.901 144.963 137.618 7471.91 0.329713 -0.0816412 2.20124e+18 0 0 8.29033e+14 2.76344e+15 3.07049e+13 
2057 0 143.87 2.20876e+18 137.994 137.585 136.896 7477.22 0.343045 -0.772086 2.20873e+18 0 0 0 3.07049e+13 0 
2061 0 144.302 2.21539e+18 141 138.369 136.875 7478.27 0.727506 0.0153284 2.21527e+18 0 0 0 1.2282e+14 0 
2065 0 144.482 2.21815e+18 140.99 137.714 136.49 7478.34 -0.360859 0.646362 2.21806e+18 0 0 0 9.21147e+13 0 
2069 0 144.096 2.21223e+18 144.687 138.128 137.449 7477.63 0.692072 0.219499 2.21189e+18 0 0 6.14098e+13 2.76344e+14 0 
2073 0 144.732 2.22199e+18 149.759 138.407 137.198 7478.11 -0.0747486 0.368221 2.22147e+18 0 0 1.53525e+14 3.07049e+14 6.14098e+13 
2077 0 144.576 2.2196e+18 164.477 140.997 137.54 7476.98 -0.597357 1.47444 2.21858e+18 0 0 3.07049e+14 6.75508e+14 3.07049e+13 
2081 0 143.556 2.20394e+18 177.559 142.962 137.578 7475.03 -0.00802792 0.330504 2.20213e+18 0 0 4.91279e+14 1.28961e+15 3.07049e+13 
2085 0 144.096 2.21223e+18 199.079 143.255 137.753 7473.78 -0.0447227 0.89147 2.20959e+18 0 0 6.44803e+14 1.9037e+15 9.21147e+13 
2089 0 144.098 2.21226e+18 259.572 146.744 138.264 7471.32 0.733782 0.758277 2.20719e+18 3.07049e+13 0 1.04397e+15 3.93023e+15 6.14098e+13 
2193 0 144.274 2.21496e+18 138.504 138.314 136.665 7477.52 0.10177 0.239956 2.21493e+18 0 0 0 3.07049e+13 0 
2197 0 144.284 2.21511e+18 142.456 137.344 136.51 7477.83 -0.239109 1.01776 2.21502e+18 0 0 0 9.21147e+13 0 
2201 0 143.936 2.20977e+18 147.35 137.269 136.408 7477.28 0.231116 0.542209 2.20953e+18 0 0 0 2.45639e+14 0 
2205 0 144.334 2.21588e+18 146.574 138.61 136.42 7477.14 0.336277 -0.588918 2.2156e+18 0 0 3.07049e+13 2.14934e+14 3.07049e+13 
2209 0 143.866 2.2087e+18 138.516 137.601 136.105 7477.06 0.251593 1.07718 2.2086e+18 0 0 6.14098e+13 3.07049e+13 0 
2213 0 143.924 2.20959e+18 154.043 139.366 136.881 7476.05 0.283977 -0.139298 2.20894e+18 0 0 1.53525e+14 4.60574e+14 3.07049e+13 
2217 0 145.006 2.2262e+18 175.317 140.83 137.11 7476.44 1.34889 1.01816 2.22485e+18 0 0 2.76344e+14 1.04397e+15 3.07049e+13 
2221 0 145.218 2.22945e+18 181.301 142.841 137.372 7474.57 0.545073 1.09148 2.22681e+18 0 0 6.14098e+14 1.873e+15 1.53525e+14 
2225 0 145.062 2.22706e+18 246.11 147.283 138.159 7471.22 0.542283 -0.211594 2.22294e+18 3.07049e+13 0 1.07467e+15 2.91697e+15 9.21147e+13 
2333 0 144.53 2.21889e+18 143.395 137.377 136.579 7477.39 0.043078 1.6433 2.21877e+18 0 0 3.07049e+13 9.21147e+13 0 
2337 0 144.122 2.21263e+18 141.621 137.691 136.067 7476.59 0.377765 -0.290522 2.21253e+18 0 0 0 9.21147e+13 0 
2341 0 144.324 2.21573e+18 139.29 137.475 137.169 7478.18 -0.586723 -0.470139 2.2156e+18 0 0 3.07049e+13 9.21147e+13 0 
2345 0 144.36 2.21628e+18 150.169 139.264 136.497 7476.19 -0.0016932 0.734228 2.21594e+18 0 0 1.2282e+14 2.14934e+14 0 
2349 0 144.174 2.21342e+18 141.857 137.192 136.938 7476.42 0.0110498 -0.82226 2.21327e+18 0 0 3.07049e+13 1.2282e+14 0 
2353 0 144.208 2.21395e+18 158.799 138.172 136.383 7475.82 0.432171 0.765559 2.2129e+18 0 0 1.84229e+14 7.98328e+14 6.14098e+13 
2357 0 144.712 2.22168e+18 171.496 141.319 136.73 7475.06 -0.273761 0.0240698 2.21981e+18 0 0 3.37754e+14 1.44313e+15 9.21147e+13 
2361 0 145.91 2.24008e+18 217.396 143.09 137.079 7472.66 0.0792487 -0.128311 2.23688e+18 0 0 7.67623e+14 2.36428e+15 6.14098e+13 
2469 0 144.106 2.21238e+18 137.273 137.815 136.472 7477.93 0.0639526 0.164752 2.21238e+18 0 0 0 0 0 
2473 0 144.168 2.21333e+18 142.668 137.727 135.544 7477.07 -0.473965 -0.934445 2.21318e+18 0 0 0 1.2282e+14 3.07049e+13 
2477 0 144.35 2.21613e+18 147.834 138.163 136.898 7476.92 -0.942393 -0.572713 2.21594e+18 0 0 6.14098e+13 1.2282e+14 0 
2481 0 144.056 2.21161e+18 145.009 137.672 136.736 7477.51 0.544424 -0.914414 2.21121e+18 0 0 6.14098e+13 3.37754e+14 0 
2485 0 144 2.21075e+18 153.436 139.703 136.418 7476.83 -0.419253 0.0438549 2.21026e+18 0 0 6.14098e+13 4.29869e+14 0 
2489 0 144.426 2.21729e+18 159.392 139.074 137.045 7476.56 -0.216553 0.751789 2.21659e+18 0 0 9.21147e+13 6.14098e+14 0 
2493 0 144.112 2.21247e+18 168.266 140.275 137.052 7475.83 0.232162 0.987326 2.21112e+18 0 0 3.37754e+14 1.01326e+15 0 
2497 0 144.506 2.21852e+18 198.804 142.671 137.372 7473.05 -1.36168 0.232466 2.21591e+18 0 0 4.91279e+14 2.11864e+15 0 
2605 0 144.144 2.21296e+18 142.209 137.506 136.846 7477.25 -0.387148 0.33077 2.21272e+18 0 0 0 2.14934e+14 3.07049e+13 
2609 0 144.604 2.22003e+18 141.858 137.696 136.146 7476.22 -0.714141 0.367238 2.21993e+18 0 0 0 9.21147e+13 0 
2613 0 143.948 2.20996e+18 140.724 138.182 136.378 7476.69 0.299267 0.385088 2.20986e+18 0 0 0 9.21147e+13 0 
2617 0 144.028 2.21118e+18 145.349 137.32 136.843 7477.71 -0.923476 0.0541677 2.21091e+18 0 0 6.14098e+13 1.84229e+14 3.07049e+13 
2621 0 144 2.21075e+18 146.487 138.399 136.595 7476.5 0.138796 -0.56969 2.21029e+18 0 0 9.21147e+13 3.68459e+14 0 
2625 0 145.062 2.22706e+18 167.846 138.358 136.908 7475.63 0.186496 0.383504 2.22626e+18 0 0 1.2282e+14 6.44803e+14 3.07049e+13 
2629 0 144.096 2.21223e+18 185.287 139.898 137.107 7474.75 -0.603647 0.267033 2.21057e+18 3.07049e+13 0 3.37754e+14 1.2282e+15 6.14098e+13 
2633 0 143.722 2.20649e+18 185.947 140.723 137.018 7474.27 -0.479282 -0.412997 2.2047e+18 0 0 3.07049e+14 1.47384e+15 0 
2637 0 144.584 2.21972e+18 224.461 147.515 138.311 7471.99 0.125869 -0.0830033 2.21524e+18 0 0 1.19749e+15 3.19331e+15 9.21147e+13 
2741 0 144.842 2.22368e+18 141.132 138.438 136.693 7477.4 -0.881003 0.11257 2.22353e+18 0 0 3.07049e+13 1.2282e+14 0 
2745 0 144.608 2.22009e+18 138.059 137.042 137.073 7476.4 -0.135559 0.851848 2.22006e+18 0 0 0 3.07049e+13 0 
2749 0 143.672 2.20572e+18 141.923 137.17 136.384 7476.2 -0.305198 1.26848 2.20556e+18 0 0 0 1.53525e+14 0 
2753 0 143.972 2.21032e+18 143.233 138.927 136.165 7476.95 0.421344 1.08507 2.21014e+18 0 0 0 1.84229e+14 0 
2757 0 145.062 2.22706e+18 148.855 138.421 136.8 7476.29 0.391 1.04078 2.22666e+18 0 0 3.07049e+13 3.37754e+14 3.07049e+13 
2761 0 144.174 2.21342e+18 160.917 139.657 137.092 7475.81 0.163263 0.623416 2.21272e+18 0 0 2.45639e+14 4.29869e+14 3.07049e+13 
2765 0 143.978 2.21042e+18 160.126 139.399 136.58 7475.6 1.05558 0.326107 2.2094e+18 0 0 1.84229e+14 7.67623e+14 6.14098e+13 
2769 0 144.214 2.21404e+18 191.97 140.774 136.967 7474.29 0.401579 0.63791 2.21201e+18 0 0 4.60574e+14 1.50454e+15 6.14098e+13 
2773 0 144.942 2.22522e+18 209.765 143.871 137.36 7473.67 0.836223 0.645095 2.22218e+18 3.07049e+13 0 5.83393e+14 2.39498e+15 3.07049e+13 
2881 0 144.426 2.21729e+18 139.688 137.878 136.735 7478.09 -0.0792545 0.227214 2.21717e+18 0 0 3.07049e+13 6.14098e+13 3.07049e+13 
2885 0 144.102 2.21232e+18 144.314 137.072 136.217 7476.81 -0.0581665 -0.246235 2.21217e+18 0 0 3.07049e+13 1.2282e+14 0 
2889 0 144.65 2.22073e+18 140.791 137.016 136.25 7476.74 0.639789 -0.869241 2.22061e+18 0 0 0 9.21147e+13 3.07049e+13 
2893 0 144.186 2.21361e+18 139.883 138.675 136.221 7477.53 -0.645685 0.441495 2.21339e+18 0 0 0 1.84229e+14 3.07049e+13 
2897 0 143.944 2.20989e+18 156.123 137.286 136.184 7476.6 0.805167 -1.48094 2.2094e+18 0 0 9.21147e+13 3.99164e+14 0 
2901 0 145.136 2.22819e+18 156.126 137.219 136.817 7476.77 -0.223308 -1.10161 2.22749e+18 0 0 6.14098e+13 6.44803e+14 0 
2905 0 145.214 2.22939e+18 174.068 141.881 137.029 7475.73 -0.206093 0.544532 2.22792e+18 0 0 3.07049e+14 1.10538e+15 6.14098e+13 
2909 0 144.022 2.21109e+18 190.633 144.155 138.075 7473.91 -0.0272482 -0.876228 2.2086e+18 0 0 5.83393e+14 1.81159e+15 9.21147e+13 
3017 0 144.208 2.21395e+18 138.977 137.201 136.11 7477.94 -1.01741 0.366467 2.21392e+18 0 0 0 3.07049e+13 0 
3021 0 144.552 2.21923e+18 137.481 138.07 136.889 7476.85 -1.86861 0.235376 2.21923e+18 0 0 0 0 0 
3025 0 143.984 2.21051e+18 144.715 137.629 136.741 7476.69 0.447765 -0.622949 2.21017e+18 0 0 6.14098e+13 2.76344e+14 0 
3029 0 144.25 2.21459e+18 145.83 137.882 136.543 7476.71 -0.794199 0.694107 2.21428e+18 0 0 3.07049e+13 2.76344e+14 0 
3033 0 144.192 2.2137e+18 152.395 138.564 136.883 7476.06 -0.990709 -0.160838 2.21318e+18 0 0 9.21147e+13 3.99164e+14 3.07049e+13 
3037 0 144.658 2.22086e+18 149.281 138.069 136.809 7475.89 1.01256 -0.575677 2.22033e+18 0 0 9.21147e+13 4.29869e+14 0 
3041 0 145.226 2.22958e+18 176.024 140.075 137.052 7475.65 -0.438645 -0.15338 2.22826e+18 3.07049e+13 0 2.14934e+14 1.07467e+15 0 
3045 0 144.498 2.2184e+18 195.978 142.959 137.466 7474.68 0.390302 0.175644 2.21594e+18 3.07049e+13 0 5.52688e+14 1.75018e+15 1.2282e+14 
3153 0 144.166 2.2133e+18 138.93 136.879 136.784 7477.46 0.512449 0.591367 2.21327e+18 0 0 0 3.07049e+13 0 
3157 0 144.372 2.21646e+18 145.362 136.985 136.451 7477.84 -0.448079 0.20748 2.21631e+18 0 0 0 1.53525e+14 0 
3161 0 144.016 2.211e+18 139.283 137.899 136.357 7476.9 -0.634176 1.13274 2.21097e+18 0 0 0 0 3.07049e+13 
3165 0 143.906 2.20931e+18 140.371 137.896 136.47 7477.05 -1.10654 1.5059 2.20919e+18 0 0 0 1.2282e+14 0 
3169 0 144.304 2.21542e+18 148.041 138.774 136.859 7476.89 -0.440228 0.24846 2.21505e+18 0 0 0 3.68459e+14 0 
3173 0 144.078 2.21195e+18 154.69 140.071 136.832 7476.52 -0.358978 0.92333 2.21124e+18 3.07049e+13 0 9.21147e+13 5.21983e+14 6.14098e+13 
3177 0 143.938 2.2098e+18 168.145 141.431 136.373 7475.56 -0.918216 1.33665 2.20857e+18 6.14098e+13 0 2.45639e+14 9.21147e+14 0 
3181 0 144.412 2.21708e+18 185.128 143.417 137.911 7474.77 0.546083 0.0807756 2.21481e+18 0 0 5.83393e+14 1.62736e+15 6.14098e+13 
3185 0 144.206 2.21392e+18 207.838 146.023 138.398 7473.38 0.808168 1.49641 2.21045e+18 3.07049e+13 0 7.67623e+14 2.60992e+15 6.14098e+13 
3289 0 144.378 2.21656e+18 138.072 137.721 136.593 7477.43 -0.345231 0.491221 2.21653e+18 0 0 0 3.07049e+13 0 
3293 0 144.49 2.21828e+18 137.416 138.632 136.736 7477.62 0.612814 0.855703 2.21825e+18 0 0 3.07049e+13 0 0 
3297 0 144.192 2.2137e+18 147.603 137.678 136.611 7477.88 -1.00502 0.0877583 2.21342e+18 0 0 0 2.76344e+14 0 
3301 0 143.94 2.20983e+18 142.777 138.178 136.028 7477.7 -0.00428112 0.580042 2.20968e+18 0 0 6.14098e+13 9.21147e+13 0 
3305 0 144.408 2.21702e+18 144.922 138.773 136.574 7477.77 -0.926323 0.264169 2.2168e+18 0 0 3.07049e+13 1.84229e+14 0 
3309 0 145.148 2.22838e+18 151.641 137.674 136.318 7477.9 -0.412789 -0.538345 2.22776e+18 0 0 1.2282e+14 4.91279e+14 0 
3313 0 144.53 2.21889e+18 162.968 139.912 137.096 7476.46 0.158781 0.157683 2.21791e+18 3.07049e+13 0 2.14934e+14 7.36918e+14 0 
3317 0 143.902 2.20925e+18 181.541 140.466 137.084 7475.03 -0.398599 0.822203 2.20771e+18 3.07049e+13 0 2.14934e+14 1.28961e+15 0 
3321 0 144.61 2.22012e+18 204.907 144.696 137.838 7473.47 1.01099 0.355611 2.21726e+18 3.07049e+13 0 6.14098e+14 2.14934e+15 6.14098e+13 
3429 0 143.568 2.20412e+18 136.695 137.232 136.112 7477.96 -0.0739801 -0.684329 2.20412e+18 0 0 0 0 0 
3433 0 144.256 2.21468e+18 138.836 137.418 135.989 7476.41 -1.18083 1.39801 2.21462e+18 0 0 0 6.14098e+13 0 
3437 0 144.506 2.21852e+18 142.747 137.315 136.855 7477.72 -0.492532 0.0833748 2.21831e+18 0 0 3.07049e+13 1.84229e+14 0 
3441 0 143.882 2.20894e+18 140.933 137.641 136.75 7477.65 0.310711 -0.141579 2.20882e+18 0 0 6.14098e+13 6.14098e+13 0 
3445 0 144.772 2.22261e+18 151.767 140.073 136.373 7476.9 -0.949699 0.0042941 2.22215e+18 0 0 1.2282e+14 3.37754e+14 0 
3449 0 144.41 2.21705e+18 159.263 138.244 136.638 7477.09 -1.02285 -0.00243689 2.21619e+18 0 0 1.84229e+14 6.75508e+14 0 
3453 0 143.68 2.20584e+18 159.061 137.346 136.932 7475.87 0.0300448 -0.469988 2.20504e+18 0 0 9.21147e+13 6.44803e+14 6.14098e+13 
3457 0 144.666 2.22098e+18 188.222 141.761 137.417 7475.34 0.913876 1.31578 2.21858e+18 0 0 5.52688e+14 1.75018e+15 9.21147e+13 
3565 0 143.83 2.20814e+18 138.739 137.866 136.185 7476.87 0.849848 -0.167857 2.20811e+18 0 0 0 3.07049e+13 0 
3569 0 144.618 2.22024e+18 139.199 137.777 136.562 7476.66 -0.832614 -0.263303 2.22018e+18 0 0 0 6.14098e+13 0 
3573 0 144.866 2.22405e+18 142.808 137.858 136.813 7477.04 0.287524 0.146442 2.2239e+18 0 0 0 1.53525e+14 0 
3577 0 143.79 2.20753e+18 145.024 137.915 136.299 7476.14 1.34638 0.482637 2.20725e+18 0 0 6.14098e+13 2.14934e+14 0 
3581 0 144.424 2.21726e+18 152.607 139.472 137.116 7475.59 -1.60701 -0.231766 2.2168e+18 0 0 6.14098e+13 3.99164e+14 0 
3585 0 143.966 2.21023e+18 148.443 137.963 136.696 7477.03 0.131985 -0.302618 2.20959e+18 0 0 1.53525e+14 4.91279e+14 0 
3589 0 144.56 2.21935e+18 158.86 141.132 137.222 7475.52 0.349005 0.000399729 2.21818e+18 6.14098e+13 0 3.68459e+14 7.36918e+14 0 
3593 0 144.508 2.21855e+18 179.707 140.912 137.609 7474.09 0.132775 -0.362718 2.21683e+18 0 0 3.37754e+14 1.38172e+15 0 
3701 0 144.384 2.21665e+18 136.972 137.756 136.581 7477.4 0.480855 -0.433787 2.21659e+18 0 0 0 6.14098e+13 0 
3705 0 144.644 2.22064e+18 143.681 136.839 135.915 7477.17 -0.260054 -0.122641 2.22046e+18 0 0 0 1.84229e+14 0 
3709 0 144.964 2.22555e+18 147.123 138.449 136.485 7476.47 0.0512703 0.435689 2.22528e+18 0 0 0 2.76344e+14 0 
3713 0 143.858 2.20857e+18 143.177 139.157 136.527 7475.95 -0.275666 0.481256 2.20814e+18 3.07049e+13 0 1.2282e+14 2.76344e+14 0 
3717 0 144.584 2.21972e+18 146.578 138.916 136.843 7476.5 -0.688322 0.400865 2.21929e+18 3.07049e+13 0 1.2282e+14 2.76344e+14 0 
3721 0 144.202 2.21385e+18 148.49 141.375 137.438 7475.4 1.02864 -0.169685 2.2129e+18 0 0 3.68459e+14 5.83393e+14 0 
3725 0 144.202 2.21385e+18 153.937 137.106 136.745 7476.65 -0.447525 -0.0595194 2.21312e+18 3.07049e+13 0 9.21147e+13 6.14098e+14 0 
3729 0 143.686 2.20593e+18 189.253 138.66 137.273 7474.25 -0.344813 1.0694 2.20394e+18 0 0 2.76344e+14 1.68877e+15 3.07049e+13 
3733 0 144.864 2.22402e+18 190.506 142.139 137.697 7474.28 1.02421 -0.769995 2.22132e+18 0 0 8.29033e+14 1.873e+15 0 
3837 0 143.888 2.20903e+18 145.677 138.233 136.371 7477.76 0.0389572 -0.0635013 2.20891e+18 0 0 3.07049e+13 9.21147e+13 0 
3841 0 144.642 2.22061e+18 136.935 137.79 136.645 7477.72 -0.572799 0.122671 2.22061e+18 0 0 0 0 0 
3845 0 144.124 2.21266e+18 139.337 137.737 136.768 7477.39 0.0580494 -0.890686 2.2125e+18 0 0 3.07049e+13 1.2282e+14 0 
3849 0 143.936 2.20977e+18 144.815 141.581 136.821 7476.37 -0.0270997 -0.301043 2.20943e+18 0 0 1.53525e+14 1.84229e+14 0 
3853 0 144.114 2.2125e+18 156.981 139.154 136.545 7477.64 0.461939 -0.0280191 2.21174e+18 0 0 1.53525e+14 6.14098e+14 0 