ITEM: TIMESTEP
21000
ITEM: NUMBER OF CELLS
10393
ITEM: BOX BOUNDS oo ao pp
-10 10
0 10
-0.5 0.5
ITEM: CELLS id proc f_avg_n f_avg_nrho f_avg_temp_tra f_avg_temp_rot f_avg_temp_vib f_avg_vel[1] f_avg_vel[2] f_avg_vel[3] f_avg_nrho_CO2 f_avg_nrho_O2 f_avg_nrho_C2 f_avg_nrho_CO f_avg_nrho_O f_avg_nrho_C 
1 0 145.524 2.23415e+18 137.849 137.726 136.495 7478.58 5.99955 -0.315189 2.23415e+18 0 0 0 0 0 
5 0 154.03 2.36474e+18 139.19 137.14 136.333 7477.24 25.7117 -0.649683 2.36474e+18 0 0 0 0 0 
9 0 160.674 2.46674e+18 145.687 137.584 136.921 7476.79 32.821 0.0462752 2.46653e+18 0 0 3.83811e+13 1.72715e+14 0 
13 0 163.796 2.51467e+18 144.944 138.641 136.483 7477.65 34.6494 -0.702203 2.51427e+18 1.91906e+13 0 3.83811e+13 3.4543e+14 0 
17 0 166.096 2.54999e+18 149.321 138.087 136.519 7477.08 32.5812 -0.0446144 2.54941e+18 1.91906e+13 0 3.83811e+13 5.18145e+14 0 
21 0 165.979 2.54818e+18 148.188 140.125 136.946 7476.08 28.3894 -0.30633 2.54736e+18 0 0 3.07049e+14 5.18145e+14 0 
25 0 164.066 2.51882e+18 172.334 142.899 137.302 7475.54 22.935 0.994965 2.51692e+18 1.91906e+13 0 3.2624e+14 1.55444e+15 0 
29 0 162.305 2.49178e+18 174.492 143.837 136.502 7475.28 17.8466 -0.296069 2.48967e+18 0 0 4.79764e+14 1.59282e+15 3.83811e+13 
33 0 159.546 2.44943e+18 236.491 153.532 138.34 7470.05 15.9043 -1.41455 2.44467e+18 0 0 1.09386e+15 3.4543e+15 2.11096e+14 
141 0 144.411 2.21707e+18 141.034 137.911 136.309 7476.69 0.0308057 0.22909 2.21693e+18 0 0 0 1.34334e+14 0 
145 0 143.92 2.20953e+18 146.05 137.615 136.739 7476.81 0.245506 -0.1779 2.20931e+18 0 0 0 1.91906e+14 1.91906e+13 
149 0 144.49 2.21828e+18 145.822 137.149 136.561 7476.77 -0.175591 0.0678509 2.21805e+18 0 0 3.83811e+13 1.91906e+14 0 
153 0 144.696 2.22144e+18 147.979 138.722 136.709 7476.47 0.2195 0.921942 2.22096e+18 0 0 1.53525e+14 3.2624e+14 0 
157 0 144.245 2.21451e+18 167.335 141.306 136.521 7475.11 0.956081 -0.070333 2.21313e+18 0 0 2.68668e+14 1.09386e+15 1.91906e+13 
161 0 145.631 2.2358e+18 181.997 139.312 137.12 7474.43 3.05061 -0.285334 2.23407e+18 0 0 2.87859e+14 1.40091e+15 3.83811e+13 
165 0 147.025 2.25719e+18 191.014 142.719 137.878 7473.58 4.27044 -0.288075 2.25495e+18 1.91906e+13 0 5.75717e+14 1.51605e+15 1.34334e+14 
169 0 147.229 2.26032e+18 234.872 149.45 138.414 7470.87 5.88301 0.753241 2.25547e+18 0 0 1.17062e+15 3.58864e+15 9.59528e+13 
277 0 144.1 2.21229e+18 143.227 138.72 136.187 7478.03 -1.0959 0.427054 2.21217e+18 0 0 3.83811e+13 7.67623e+13 0 
281 0 144.09 2.21214e+18 148.63 138.804 136.281 7477.02 0.189589 -0.179061 2.21191e+18 0 0 7.67623e+13 1.34334e+14 1.91906e+13 
285 0 144.269 2.21488e+18 152.647 138.076 136.501 7476.75 -0.946053 1.55986 2.21451e+18 0 0 7.67623e+13 2.87859e+14 0 
289 0 143.512 2.20327e+18 146.363 139.912 136.473 7477.51 0.174555 0.589615 2.20281e+18 0 0 1.91906e+14 2.68668e+14 0 
293 0 144.173 2.2134e+18 147.572 138.49 136.478 7477.06 -0.295475 0.544536 2.21296e+18 0 0 1.15143e+14 3.2624e+14 0 
297 0 144.023 2.2111e+18 163.671 139.296 136.319 7475.68 0.585215 0.051917 2.2097e+18 0 0 2.30287e+14 1.17062e+15 0 
301 0 143.778 2.20734e+18 179.412 142.127 137.118 7475.38 1.14893 0.272174 2.20515e+18 0 0 4.60574e+14 1.70796e+15 1.91906e+13 
305 0 144.118 2.21256e+18 223.704 147.266 138.695 7470.97 1.19678 0.632345 2.20878e+18 1.91906e+13 0 1.0171e+15 2.66749e+15 7.67623e+13 
413 0 144.591 2.21983e+18 147.418 137.15 136.537 7476.83 -0.114172 0.00225913 2.21964e+18 0 0 0 1.15143e+14 7.67623e+13 
417 0 144.924 2.22494e+18 142.263 138.032 136.552 7476.69 0.38389 -0.205344 2.2248e+18 0 0 1.91906e+13 1.15143e+14 0 
421 0 144.532 2.21893e+18 142.756 138.546 136.688 7476.76 -0.315765 -0.463363 2.21879e+18 0 0 3.83811e+13 9.59528e+13 0 
425 0 144.43 2.21736e+18 146.504 138.071 136.678 7476.3 0.160044 -0.435218 2.21701e+18 0 0 3.83811e+13 2.87859e+14 1.91906e+13 
429 0 143.699 2.20613e+18 165.982 140.123 136.664 7475.31 0.60081 -0.478274 2.20511e+18 0 0 2.30287e+14 7.86813e+14 0 
433 0 144.909 2.22471e+18 167.385 140.899 137.405 7476.26 -0.292946 0.0932184 2.22342e+18 0 0 3.64621e+14 9.01957e+14 1.91906e+13 
437 0 144.651 2.22075e+18 191.197 142.391 137.717 7474.13 -0.189164 0.73442 2.21866e+18 0 0 5.18145e+14 1.55444e+15 1.91906e+13 
441 0 143.904 2.20928e+18 219.141 142.486 137.904 7472.87 -0.127539 -0.131766 2.20598e+18 0 0 6.14098e+14 2.66749e+15 1.91906e+13 
445 0 144.901 2.22459e+18 311.151 148.578 138.647 7467.96 0.204994 0.422221 2.21736e+18 1.91906e+13 0 1.70796e+15 5.39255e+15 1.15143e+14 
549 0 144.539 2.21902e+18 141.544 137.456 136.784 7477.61 -0.565247 0.0130344 2.21897e+18 0 0 1.91906e+13 3.83811e+13 0 
553 0 143.946 2.20993e+18 140.156 136.863 136.332 7477.15 0.145072 0.585727 2.20977e+18 0 0 1.91906e+13 1.15143e+14 1.91906e+13 
557 0 144.589 2.21979e+18 141.142 137.011 136.244 7476.61 0.337762 0.679411 2.21956e+18 0 0 5.75717e+13 1.72715e+14 0 
561 0 144.458 2.21778e+18 145.028 138.141 136.827 7476.69 -0.0647189 0.200244 2.2172e+18 0 0 1.72715e+14 3.83811e+14 1.91906e+13 
565 0 144.548 2.21916e+18 153.058 138.671 136.757 7476.02 0.0427563 -0.692852 2.21837e+18 0 0 2.49477e+14 5.37336e+14 0 
569 0 144.491 2.2183e+18 158.585 139.411 136.85 7476.68 0.0752701 -0.181653 2.21747e+18 0 0 2.49477e+14 5.18145e+14 5.75717e+13 
573 0 144.817 2.2233e+18 180.901 141.735 136.831 7475.18 0.636067 0.79328 2.22144e+18 0 0 4.22193e+14 1.43929e+15 0 
577 0 144.586 2.21975e+18 194.887 141.361 137.579 7473.92 -0.318872 -0.136662 2.21701e+18 1.91906e+13 0 4.79764e+14 2.18772e+15 5.75717e+13 
581 0 144.369 2.21641e+18 265.596 150.4 139.641 7470.02 0.208371 -0.415108 2.21047e+18 1.91906e+13 0 1.4201e+15 4.39464e+15 1.15143e+14 
689 0 144.476 2.21807e+18 139.527 137.771 136.981 7477.51 -0.802123 -0.884486 2.21801e+18 0 0 1.91906e+13 3.83811e+13 0 
693 0 144.436 2.21745e+18 145.886 138.282 136.58 7477.22 -0.280959 0.807927 2.21724e+18 0 0 1.91906e+13 1.72715e+14 1.91906e+13 
697 0 144.089 2.21212e+18 146.413 140.175 136.206 7477.59 -0.474217 0.351014 2.21166e+18 0 0 9.59528e+13 3.4543e+14 1.91906e+13 
701 0 143.433 2.20204e+18 159.326 137.879 137.08 7476.07 -0.626325 0.380086 2.20145e+18 0 0 7.67623e+13 5.18145e+14 0 
705 0 144.425 2.21728e+18 151.015 139.345 137.231 7476.03 -0.661108 -0.722862 2.21653e+18 0 0 2.30287e+14 4.79764e+14 3.83811e+13 
709 0 144.656 2.22083e+18 174.587 139.419 136.63 7475.94 -0.49474 0.439758 2.21931e+18 0 0 2.87859e+14 1.20901e+15 1.91906e+13 
713 0 144.466 2.21791e+18 201.865 141.227 137.798 7473.84 0.363333 0.00149032 2.21538e+18 0 0 4.98955e+14 1.93825e+15 9.59528e+13 
717 0 144.569 2.21949e+18 238.819 146.741 138.125 7470.7 0.00201188 0.46777 2.21532e+18 3.83811e+13 0 1.0171e+15 3.03211e+15 7.67623e+13 
825 0 144.186 2.21361e+18 141.275 137.222 136.628 7477.54 0.263046 -0.721969 2.21352e+18 0 0 1.91906e+13 7.67623e+13 0 
829 0 144.34 2.21597e+18 144.225 137.42 135.99 7476.53 -1.106 -0.165752 2.2158e+18 0 0 1.91906e+13 1.53525e+14 0 
833 0 144.786 2.22282e+18 148.162 138.399 136.961 7476.43 -0.239972 0.321261 2.22254e+18 0 0 0 2.87859e+14 0 
837 0 143.896 2.20916e+18 148.765 137.778 137.092 7477.08 0.369821 0.247094 2.2088e+18 0 0 5.75717e+13 3.07049e+14 0 
841 0 144.316 2.21561e+18 155.794 139.308 136.741 7475.9 -1.06732 0.108134 2.21473e+18 0 0 1.72715e+14 7.10051e+14 0 
845 0 144.469 2.21795e+18 160.912 140.75 137.326 7475.95 0.717993 0.11369 2.21695e+18 0 0 2.30287e+14 7.67623e+14 0 
849 0 144.028 2.21118e+18 197.77 140.886 136.976 7474.11 0.45153 0.573814 2.20893e+18 1.91906e+13 0 4.79764e+14 1.65039e+15 9.59528e+13 
853 0 143.852 2.20849e+18 236.501 144.09 138.187 7471.74 -0.359882 -0.0464846 2.20419e+18 0 0 1.07467e+15 3.12806e+15 9.59528e+13 
961 0 144.656 2.22083e+18 140.731 136.991 136.352 7477.45 0.134859 -0.111404 2.22075e+18 0 0 0 5.75717e+13 1.91906e+13 
965 0 143.879 2.20889e+18 142.356 137.355 136.65 7476.51 0.735396 -0.138264 2.20872e+18 0 0 1.91906e+13 1.34334e+14 1.91906e+13 
969 0 143.738 2.20672e+18 145.339 137.249 136.875 7476.9 0.0623543 0.644727 2.20651e+18 0 0 1.91906e+13 1.91906e+14 0 
973 0 144.376 2.21653e+18 146.665 138.325 136.73 7476.36 -0.0832959 0.078198 2.2162e+18 0 0 3.83811e+13 2.68668e+14 1.91906e+13 
977 0 144.458 2.21778e+18 153.584 138.376 136.629 7476.76 0.329855 -0.0316506 2.21718e+18 0 0 7.67623e+13 4.79764e+14 3.83811e+13 
981 0 143.586 2.2044e+18 159.111 139.077 137.225 7475.67 -0.178791 0.676171 2.20344e+18 0 0 2.30287e+14 7.29242e+14 0 
985 0 143.917 2.20949e+18 178.658 141.782 137.262 7474.73 -0.0589344 0.234543 2.20778e+18 1.91906e+13 0 4.41383e+14 1.24739e+15 0 
989 0 144.771 2.22259e+18 213.719 143.702 137.744 7472.76 0.00656792 0.931728 2.21947e+18 1.91906e+13 0 7.29242e+14 2.28368e+15 9.59528e+13 
993 0 144.375 2.21651e+18 276.683 149.983 139.322 7468.99 0.705126 0.884912 2.21024e+18 7.67623e+13 0 1.55444e+15 4.4714e+15 1.72715e+14 
1097 0 144.067 2.21179e+18 141.676 137.708 136.336 7477.46 -0.0674665 0.0554646 2.21171e+18 0 0 0 7.67623e+13 0 
1101 0 144.148 2.21302e+18 137.826 136.886 136.815 7477.6 -0.079535 0.603568 2.21298e+18 0 0 0 3.83811e+13 0 
1105 0 144.1 2.21229e+18 142.472 138.635 136.547 7477.01 0.0196396 -0.0610094 2.2121e+18 0 0 1.91906e+13 1.72715e+14 0 
1109 0 144.15 2.21306e+18 143.425 137.638 136.724 7477.26 -0.350609 0.372892 2.21275e+18 0 0 5.75717e+13 2.49477e+14 0 
1113 0 144.322 2.2157e+18 152.164 138.567 136.949 7478.39 0.0168869 0.547679 2.21523e+18 0 0 1.34334e+14 3.4543e+14 0 
1117 0 144.821 2.22336e+18 158.314 138.929 136.41 7476.96 0.439864 -0.716131 2.22258e+18 0 0 1.34334e+14 6.52479e+14 0 
1121 0 144.748 2.22223e+18 173.123 138.986 136.771 7476 -0.692224 -0.029287 2.22071e+18 0 0 3.64621e+14 1.13224e+15 1.91906e+13 
1125 0 143.711 2.20632e+18 204.445 143.853 137.714 7474.24 -0.0846889 1.10236 2.20402e+18 1.91906e+13 0 5.75717e+14 1.70796e+15 0 
1129 0 144.727 2.22192e+18 256.397 147.43 138.271 7470.44 0.580904 -0.27867 2.21686e+18 5.75717e+13 0 1.15143e+15 3.79973e+15 5.75717e+13 
1237 0 144.971 2.22566e+18 141.286 138.095 136.642 7477.7 -1.91422 -0.0881658 2.22559e+18 0 0 0 5.75717e+13 1.91906e+13 
1241 0 144.197 2.21379e+18 139.646 138.404 136.581 7477.35 -0.182066 -0.795479 2.21359e+18 0 0 7.67623e+13 1.15143e+14 0 
1245 0 144.726 2.2219e+18 144.829 138.323 136.407 7477.65 0.254917 0.368506 2.22169e+18 0 0 1.91906e+13 1.91906e+14 0 
1249 0 144.377 2.21655e+18 143.634 138.184 136.751 7476.76 -1.35365 -0.188494 2.21628e+18 0 0 5.75717e+13 2.11096e+14 0 
1253 0 144.461 2.21783e+18 150.891 138.332 136.549 7476.58 0.34995 -0.544226 2.21726e+18 0 0 7.67623e+13 4.60574e+14 3.83811e+13 
1257 0 143.993 2.21064e+18 167.377 141.001 136.894 7475.66 0.233624 0.212371 2.20918e+18 1.91906e+13 0 4.22193e+14 9.59528e+14 5.75717e+13 
1261 0 145.149 2.22839e+18 195.345 144 137.558 7474.57 0.201843 0.749705 2.22614e+18 0 0 6.52479e+14 1.57363e+15 1.91906e+13 
1265 0 144.394 2.2168e+18 243.763 143.349 138.678 7471.97 -0.491879 0.445612 2.21286e+18 0 0 1.05548e+15 2.85939e+15 1.91906e+13 
1373 0 144.178 2.21348e+18 145.723 137.027 136.906 7477.35 -0.0709167 0.357247 2.21336e+18 0 0 3.83811e+13 7.67623e+13 0 
1377 0 144.465 2.21789e+18 144.016 137.588 136.639 7476.47 0.124077 0.602226 2.2178e+18 0 0 3.83811e+13 5.75717e+13 0 
1381 0 144.643 2.22062e+18 145.613 136.642 136.583 7476.9 -0.957606 0.361569 2.22039e+18 0 0 1.91906e+13 2.11096e+14 0 
1385 0 144.541 2.21906e+18 145.567 138.597 136.726 7477.29 -0.013335 0.761229 2.21878e+18 0 0 5.75717e+13 2.11096e+14 1.91906e+13 
1389 0 144.024 2.21112e+18 161.484 138.807 136.922 7475.78 -0.181664 0.299669 2.21025e+18 0 0 1.34334e+14 7.29242e+14 0 
1393 0 144.874 2.22417e+18 164.48 140.578 137.073 7475.42 -0.610688 0.74637 2.22296e+18 3.83811e+13 0 3.2624e+14 7.67623e+14 7.67623e+13 
1397 0 144.605 2.22004e+18 185.089 141.348 137.595 7474.95 0.0257565 1.14572 2.21787e+18 1.91906e+13 0 5.37336e+14 1.55444e+15 5.75717e+13 
1401 0 144.773 2.22261e+18 212.76 145.705 137.942 7472.65 0.742184 0.0218468 2.21931e+18 3.83811e+13 0 7.10051e+14 2.49477e+15 5.75717e+13 
1509 0 144.704 2.22156e+18 138.349 138.459 136.295 7477.13 0.114861 -0.412528 2.22152e+18 0 0 1.91906e+13 1.91906e+13 0 
1513 0 144.365 2.21636e+18 138.821 137.778 136.52 7477.23 -1.23631 0.564765 2.21626e+18 0 0 5.75717e+13 3.83811e+13 0 
1517 0 144.123 2.21263e+18 144.076 137.998 137.021 7478.02 0.0582964 0.210591 2.21246e+18 0 0 1.91906e+13 1.53525e+14 0 
1521 0 144.669 2.22102e+18 150.172 137.223 136.221 7476.69 0.297171 0.134584 2.2206e+18 0 0 5.75717e+13 3.64621e+14 0 
1525 0 144.111 2.21246e+18 153.759 139.792 136.447 7476.65 -0.680756 0.925119 2.21177e+18 0 0 2.11096e+14 4.60574e+14 1.91906e+13 
1529 0 143.982 2.21048e+18 172.199 141.366 137.412 7476.29 -0.0967617 0.435524 2.20933e+18 0 0 3.64621e+14 7.29242e+14 5.75717e+13 
1533 0 144.403 2.21693e+18 182.377 139.899 137.059 7475.13 0.773487 0.745788 2.21503e+18 0 0 3.83811e+14 1.49686e+15 1.91906e+13 
1537 0 144.536 2.21899e+18 212.002 143.628 137.831 7473.56 -0.408431 0.0974309 2.21578e+18 3.83811e+13 0 7.29242e+14 2.37963e+15 5.75717e+13 
1541 0 144.744 2.22217e+18 282.834 151.374 139.062 7468.9 1.77202 0.914033 2.21626e+18 0 0 1.51605e+15 4.2795e+15 1.15143e+14 
1645 0 144.129 2.21273e+18 139.149 137.428 136.222 7477.71 -0.231254 -0.0020553 2.21269e+18 0 0 0 3.83811e+13 0 
1649 0 144.15 2.21306e+18 140.53 137.607 136.629 7476.25 -0.226093 0.444196 2.21298e+18 0 0 1.91906e+13 5.75717e+13 0 
1653 0 144.101 2.21231e+18 142.899 139.305 136.368 7477.54 -0.320625 -0.721477 2.2121e+18 0 0 5.75717e+13 1.34334e+14 1.91906e+13 
1657 0 144.387 2.2167e+18 146.819 138.425 136.406 7477.18 -0.135403 -0.48556 2.21638e+18 0 0 3.83811e+13 2.87859e+14 0 
1661 0 144.386 2.21668e+18 147.686 138.559 136.661 7476.33 -0.302828 0.174237 2.21628e+18 0 0 1.15143e+14 2.68668e+14 1.91906e+13 
1665 0 144.889 2.2244e+18 156.317 138.948 136.591 7477.12 0.413687 -0.585846 2.2239e+18 0 0 9.59528e+13 4.03002e+14 0 
1669 0 144.56 2.21935e+18 166.558 140.086 136.574 7475.78 -0.0285284 -0.398372 2.21833e+18 0 0 1.72715e+14 8.06004e+14 3.83811e+13 
1673 0 144.534 2.21895e+18 202.139 144.529 137.377 7473.38 1.23245 -0.285432 2.21634e+18 0 0 5.18145e+14 2.05339e+15 3.83811e+13 
1677 0 144.16 2.21321e+18 231.08 147.393 138.396 7472.04 0.935051 -0.640765 2.2093e+18 0 0 9.9791e+14 2.82101e+15 9.59528e+13 
1785 0 144.366 2.21638e+18 140.53 137.614 136.301 7477.09 -0.0264253 -0.541368 2.21628e+18 0 0 1.91906e+13 7.67623e+13 0 
1789 0 144.47 2.21797e+18 140.413 138 136.476 7476.58 0.428665 0.387933 2.21785e+18 0 0 3.83811e+13 5.75717e+13 1.91906e+13 
1793 0 144.061 2.21169e+18 144.359 137.325 136.562 7476.33 0.296563 0.58018 2.21143e+18 0 0 1.91906e+13 2.11096e+14 3.83811e+13 
1797 0 144.266 2.21484e+18 145.824 138.688 136.169 7477.09 -0.288245 0.465675 2.2144e+18 0 0 5.75717e+13 3.83811e+14 0 
1801 0 144.656 2.22083e+18 157.484 138.604 136.317 7476.33 0.535326 0.262726 2.22014e+18 0 0 5.75717e+13 6.14098e+14 1.91906e+13 
1805 0 145.273 2.23029e+18 174.277 140.187 137.236 7474.79 0.244236 0.51335 2.22895e+18 0 0 2.87859e+14 9.9791e+14 5.75717e+13 
1809 0 144.774 2.22263e+18 177.372 141.847 137.116 7474.9 -0.270324 0.0527761 2.22048e+18 0 0 5.56527e+14 1.53525e+15 5.75717e+13 
1813 0 144.502 2.21847e+18 221.988 148.693 138.736 7471.8 0.334491 -0.025801 2.21471e+18 0 0 1.07467e+15 2.60992e+15 7.67623e+13 
1921 0 143.972 2.21033e+18 138.448 137.999 136.832 7476.82 -0.205742 0.1384 2.21029e+18 0 0 1.91906e+13 1.91906e+13 0 
1925 0 144.625 2.22035e+18 142.228 137.514 136.765 7476.8 -1.02719 -0.318424 2.22025e+18 0 0 1.91906e+13 7.67623e+13 0 
1929 0 144.251 2.21461e+18 140.084 137.729 136.413 7475.96 -0.0848624 0.728483 2.2145e+18 0 0 1.91906e+13 9.59528e+13 0 
1933 0 143.614 2.20482e+18 144.684 138.29 136.592 7477.04 -0.65003 -0.420928 2.20456e+18 0 0 5.75717e+13 1.91906e+14 1.91906e+13 
1937 0 144.847 2.22376e+18 158.66 139.316 137.474 7476.36 0.205876 -0.0431261 2.22277e+18 0 0 3.07049e+14 6.14098e+14 7.67623e+13 
1941 0 144.235 2.21436e+18 158.778 139.026 136.346 7476.44 -0.319459 0.0197459 2.21356e+18 1.91906e+13 0 1.72715e+14 5.75717e+14 3.83811e+13 
1945 0 144.476 2.21807e+18 182.695 140.794 137.228 7474.84 0.736375 -0.601272 2.21653e+18 0 0 2.11096e+14 1.2282e+15 9.59528e+13 
1949 0 143.801 2.2077e+18 207.185 145.252 137.846 7472.68 0.740626 -0.208737 2.20427e+18 0 0 8.06004e+14 2.60992e+15 1.91906e+13 
2057 0 144.166 2.21331e+18 139.84 137.633 137.09 7477.72 -0.249431 -0.426298 2.21325e+18 0 0 0 5.75717e+13 0 
2061 0 144.231 2.2143e+18 140.907 138.319 136.751 7478.01 0.446678 -0.260025 2.21419e+18 0 0 1.91906e+13 9.59528e+13 0 
2065 0 144.415 2.21712e+18 141.751 137.659 136.359 7477.53 -0.674541 0.422933 2.21703e+18 0 0 0 9.59528e+13 0 
2069 0 144.34 2.21597e+18 144.48 138.24 137.118 7477.23 0.196458 -0.0885174 2.21565e+18 0 0 5.75717e+13 2.49477e+14 1.91906e+13 
2073 0 144.415 2.21712e+18 151.604 138.809 136.854 7477.41 0.100948 -0.22255 2.21657e+18 0 0 1.72715e+14 3.4543e+14 3.83811e+13 
2077 0 144.76 2.22242e+18 163.711 140.029 137.469 7476.68 -0.558177 0.750861 2.2214e+18 0 0 2.49477e+14 7.29242e+14 3.83811e+13 
2081 0 143.905 2.2093e+18 174.065 141.473 137.359 7475.17 0.45866 -0.318499 2.20753e+18 0 0 3.83811e+14 1.34334e+15 3.83811e+13 
2085 0 144.089 2.21212e+18 197.296 143.157 137.451 7473.6 0.191332 0.401576 2.2096e+18 1.91906e+13 0 5.94908e+14 1.8231e+15 7.67623e+13 
2089 0 144.294 2.21526e+18 259.906 147.48 138.347 7470.66 1.08639 0.188099 2.2101e+18 1.91906e+13 0 1.09386e+15 3.99164e+15 5.75717e+13 
2193 0 144.137 2.21286e+18 139.894 138.05 136.725 7477.32 -0.141075 -0.177497 2.21281e+18 0 0 0 5.75717e+13 0 
2197 0 144.077 2.21194e+18 142.575 137.755 136.495 7477.7 -0.158527 0.798223 2.21181e+18 0 0 0 1.34334e+14 0 
2201 0 143.721 2.20647e+18 147.109 137.205 136.508 7477.23 0.341621 0.0872468 2.20622e+18 0 0 3.83811e+13 2.11096e+14 0 
2205 0 144.366 2.21638e+18 142.95 138.164 136.611 7477.05 0.0342911 -0.628049 2.21618e+18 0 0 1.91906e+13 1.53525e+14 1.91906e+13 
2209 0 144.271 2.21492e+18 143.607 137.592 136.572 7477.28 0.388233 1.24912 2.21467e+18 3.83811e+13 0 5.75717e+13 1.34334e+14 1.91906e+13 
2213 0 143.706 2.20624e+18 153.024 139.28 137.212 7476.52 0.208818 -0.370631 2.20559e+18 1.91906e+13 0 1.53525e+14 4.60574e+14 1.91906e+13 
2217 0 144.553 2.21924e+18 168.086 140.48 137.173 7475.89 0.693223 0.243336 2.21808e+18 0 0 2.68668e+14 8.63576e+14 1.91906e+13 
2221 0 144.537 2.21901e+18 179.251 143.805 137.704 7475.04 0.359757 1.08839 2.21649e+18 0 0 6.14098e+14 1.74634e+15 1.53525e+14 
2225 0 144.257 2.21471e+18 247.371 147.909 138.465 7471.3 1.12803 -0.483356 2.21056e+18 1.91906e+13 0 1.28577e+15 2.78263e+15 5.75717e+13 
2333 0 144.514 2.21864e+18 141.942 137.517 136.878 7477.89 0.285827 1.09607 2.21854e+18 0 0 1.91906e+13 7.67623e+13 0 
2337 0 144.15 2.21306e+18 140.871 137.267 136.333 7477.36 0.434482 -0.626073 2.21296e+18 0 0 0 9.59528e+13 0 
2341 0 144.19 2.21367e+18 141.656 137.637 137.029 7477.53 -0.216723 -0.23896 2.21346e+18 0 0 7.67623e+13 1.34334e+14 0 
2345 0 144.143 2.21294e+18 148.842 139.072 136.575 7476.45 -0.327256 0.197513 2.21262e+18 0 0 9.59528e+13 2.30287e+14 0 
2349 0 143.775 2.2073e+18 145.696 137.701 137.117 7476.47 0.0384304 -0.946466 2.20699e+18 0 0 5.75717e+13 2.49477e+14 0 
2353 0 143.83 2.20814e+18 160.913 139.144 136.683 7475.93 0.384199 0.495097 2.20707e+18 0 0 2.68668e+14 7.29242e+14 7.67623e+13 
2357 0 144.61 2.22012e+18 173.02 141.159 136.638 7475.16 0.337013 -0.127866 2.21837e+18 0 0 3.2624e+14 1.34334e+15 7.67623e+13 
2361 0 145.121 2.22797e+18 218.658 145.339 137.706 7472.72 0.75019 -0.839509 2.22459e+18 1.91906e+13 0 8.44385e+14 2.47558e+15 3.83811e+13 
2469 0 144.046 2.21146e+18 137.115 137.445 136.53 7477.55 0.219144 0.00547177 2.21146e+18 0 0 0 0 0 
2473 0 143.946 2.20993e+18 141.769 137.812 135.898 7477.92 -0.0867897 -1.24293 2.20976e+18 0 0 1.91906e+13 1.34334e+14 1.91906e+13 
2477 0 144.036 2.21131e+18 147.35 138.083 136.732 7476.82 -0.213933 -0.262463 2.21112e+18 0 0 3.83811e+13 1.53525e+14 0 
2481 0 144.294 2.21526e+18 144.044 137.217 136.827 7477.61 0.585619 -0.43736 2.21492e+18 0 0 5.75717e+13 2.87859e+14 0 
2485 0 143.819 2.20797e+18 152.115 139.133 136.385 7477.04 -0.0454267 -0.149673 2.2074e+18 0 0 1.15143e+14 4.60574e+14 0 
2489 0 144.222 2.21417e+18 157.352 139.351 136.949 7476.17 0.513358 0.520737 2.21327e+18 0 0 2.49477e+14 6.33289e+14 1.91906e+13 
2493 0 144.536 2.21899e+18 175.394 140.625 137.336 7475.78 0.37042 0.422019 2.21741e+18 1.91906e+13 0 4.03002e+14 1.13224e+15 1.91906e+13 
2497 0 144.734 2.22202e+18 196.043 142.775 137.549 7473.61 -0.828158 0.448203 2.21941e+18 1.91906e+13 0 5.37336e+14 2.05339e+15 0 
2605 0 144.02 2.21106e+18 141.176 137.553 136.74 7477.3 -0.374611 0.493732 2.21085e+18 0 0 1.91906e+13 1.72715e+14 1.91906e+13 
2609 0 144.577 2.21962e+18 142.017 137.535 136.589 7476.45 -0.505612 0.472539 2.21952e+18 0 0 1.91906e+13 7.67623e+13 0 
2613 0 144.173 2.2134e+18 139.429 137.595 136.12 7476.92 0.830407 0.424271 2.21334e+18 0 0 0 5.75717e+13 0 
2617 0 144.069 2.21181e+18 143.662 137.122 136.891 7477.81 -0.402064 0.0808415 2.21154e+18 0 0 5.75717e+13 1.91906e+14 1.91906e+13 
2621 0 144.051 2.21154e+18 149.69 138.866 136.907 7476.49 0.152385 -0.785633 2.21108e+18 0 0 9.59528e+13 3.64621e+14 0 
2625 0 145.019 2.22639e+18 160.678 138.745 136.814 7475.81 0.326158 0.389581 2.22561e+18 0 0 1.91906e+14 5.75717e+14 1.91906e+13 
2629 0 144.475 2.21805e+18 182.29 140.121 137.173 7475.04 -0.143681 0.178587 2.21647e+18 1.91906e+13 0 3.64621e+14 1.13224e+15 5.75717e+13 
2633 0 144.221 2.21415e+18 185.64 141.006 137.125 7474.78 -0.447069 -0.519153 2.2125e+18 0 0 2.68668e+14 1.36253e+15 1.91906e+13 
2637 0 144.85 2.2238e+18 229.342 146.979 138.436 7471.38 0.252434 0.226685 2.21943e+18 0 0 1.09386e+15 3.20483e+15 7.67623e+13 
2741 0 144.662 2.22092e+18 139.865 138.362 136.732 7477.52 -0.73147 0.508349 2.22083e+18 0 0 1.91906e+13 7.67623e+13 0 
2745 0 144.345 2.21605e+18 137.773 136.657 137.056 7476.35 -0.181045 0.604783 2.21603e+18 0 0 0 1.91906e+13 0 
2749 0 143.877 2.20887e+18 141.555 136.986 136.276 7476.43 -0.528842 0.470724 2.20874e+18 0 0 0 1.34334e+14 0 
2753 0 143.895 2.20914e+18 142.291 138.447 136.187 7477.04 -0.133428 0.573244 2.20899e+18 0 0 0 1.53525e+14 0 
2757 0 145.011 2.22628e+18 147.825 139.12 136.86 7476.15 -0.259888 0.650447 2.22591e+18 0 0 1.91906e+13 3.2624e+14 1.91906e+13 
2761 0 144.412 2.21709e+18 157.177 140.427 137.095 7476.28 -0.13537 -0.160208 2.21645e+18 0 0 2.11096e+14 3.83811e+14 3.83811e+13 
2765 0 143.477 2.20273e+18 160.527 138.634 136.478 7475.37 0.851182 0.553114 2.20177e+18 0 0 1.72715e+14 7.48432e+14 3.83811e+13 
2769 0 144.275 2.21498e+18 186.191 140.348 137.293 7473.92 -0.112866 0.189552 2.21285e+18 0 0 4.41383e+14 1.6312e+15 5.75717e+13 
2773 0 144.636 2.22052e+18 210.928 143.768 137.353 7473.81 0.410168 0.300796 2.21724e+18 1.91906e+13 0 6.7167e+14 2.57154e+15 1.91906e+13 
2881 0 144.299 2.21534e+18 138.933 137.772 136.767 7477.95 -0.0843787 0.428557 2.21526e+18 0 0 1.91906e+13 3.83811e+13 1.91906e+13 
2885 0 144.049 2.2115e+18 141.937 137.397 136.097 7476.66 -0.354979 -0.127272 2.21141e+18 0 0 1.91906e+13 7.67623e+13 0 
2889 0 144.627 2.22039e+18 142.772 137.576 136.429 7477.28 0.147296 -0.946058 2.22018e+18 0 0 3.83811e+13 1.53525e+14 1.91906e+13 
2893 0 144.156 2.21315e+18 140.611 138.375 136.341 7477.13 -0.34541 0.801297 2.21294e+18 0 0 1.91906e+13 1.72715e+14 1.91906e+13 
2897 0 143.851 2.20847e+18 154.387 137.599 136.503 7476.28 0.515828 -0.765667 2.20793e+18 0 0 9.59528e+13 4.22193e+14 1.91906e+13 
2901 0 144.676 2.22114e+18 155.253 137.641 136.834 7476.59 -0.38069 -1.54248 2.22031e+18 0 0 1.34334e+14 6.90861e+14 0 
2905 0 145.062 2.22707e+18 173.359 141.756 137.156 7475.21 -0.354048 0.434165 2.22565e+18 0 0 3.4543e+14 1.0171e+15 5.75717e+13 
2909 0 144.077 2.21194e+18 186.2 143.333 137.818 7474.42 0.185919 -0.834431 2.20945e+18 0 0 5.94908e+14 1.8231e+15 7.67623e+13 
3017 0 144.285 2.21513e+18 140.733 137.678 136.506 7477.35 -0.738205 -0.0514776 2.21505e+18 0 0 1.91906e+13 5.75717e+13 0 
3021 0 144.435 2.21743e+18 139.723 138.274 136.768 7477.22 -1.36538 -0.165902 2.21737e+18 0 0 0 5.75717e+13 0 
3025 0 143.949 2.20997e+18 143.023 137.716 136.644 7477.38 0.462907 -0.341941 2.20972e+18 0 0 3.83811e+13 2.11096e+14 0 
3029 0 143.88 2.20891e+18 146.389 137.653 136.536 7476.58 -0.943397 0.342809 2.20864e+18 0 0 1.91906e+13 2.49477e+14 0 
3033 0 143.847 2.20841e+18 150.026 138.586 136.811 7476.23 -0.494325 -0.314829 2.20791e+18 0 0 1.15143e+14 3.64621e+14 1.91906e+13 
3037 0 144.037 2.21133e+18 153.912 138.387 136.967 7475.94 0.654487 0.0738445 2.21068e+18 0 0 1.15143e+14 5.37336e+14 0 
3041 0 144.474 2.21803e+18 170.29 140.088 136.906 7475.92 -0.106639 -0.279578 2.21682e+18 1.91906e+13 0 2.30287e+14 9.59528e+14 0 
3045 0 144.33 2.21582e+18 190.004 141.554 137.482 7475.15 0.588263 -0.264133 2.21336e+18 1.91906e+13 0 5.18145e+14 1.84229e+15 7.67623e+13 
3153 0 144.299 2.21534e+18 139.884 137.202 136.712 7477.46 -0.187873 0.581808 2.21528e+18 0 0 0 5.75717e+13 0 
3157 0 144.347 2.21609e+18 143.591 137.199 136.484 7477.72 -0.224753 -0.0489578 2.21595e+18 0 0 0 1.34334e+14 0 
3161 0 144.071 2.21185e+18 141.75 138.414 136.385 7477.14 -0.697514 0.556054 2.21169e+18 0 0 3.83811e+13 7.67623e+13 3.83811e+13 
3165 0 144.011 2.21093e+18 139.444 137.85 136.698 7477.31 -1.00327 1.35483 2.21081e+18 0 0 1.91906e+13 9.59528e+13 0 
3169 0 144.411 2.21707e+18 146.67 138.389 136.56 7476.68 -0.136292 0.120334 2.21676e+18 0 0 1.91906e+13 2.87859e+14 0 
3173 0 144.165 2.21329e+18 154.23 140.11 136.926 7477.09 -0.286987 0.89203 2.21263e+18 1.91906e+13 0 7.67623e+13 5.18145e+14 3.83811e+13 
3177 0 143.854 2.20851e+18 165.01 139.909 136.907 7476.18 -0.502418 1.02509 2.20745e+18 3.83811e+13 0 2.11096e+14 8.06004e+14 0 
3181 0 144.455 2.21774e+18 183.13 143.27 137.493 7474.2 0.497902 0.301529 2.21567e+18 0 0 4.79764e+14 1.55444e+15 3.83811e+13 
3185 0 144.42 2.2172e+18 210.074 145.002 138.229 7473.49 0.359493 0.299076 2.21384e+18 1.91906e+13 0 7.86813e+14 2.51396e+15 3.83811e+13 
3289 0 144.26 2.21475e+18 141.341 138.385 136.534 7477.24 -0.474398 1.02781 2.21467e+18 0 0 1.91906e+13 5.75717e+13 0 
3293 0 144.347 2.21609e+18 137.415 138.2 136.612 7477.65 0.124831 0.732491 2.21607e+18 0 0 1.91906e+13 0 0 
3297 0 144.104 2.21235e+18 143.69 137.811 136.719 7477.68 -0.253647 -0.251849 2.21217e+18 0 0 0 1.72715e+14 0 
3301 0 143.74 2.20676e+18 141.805 138.154 136.275 7477.58 -0.124645 1.22685 2.20661e+18 0 0 3.83811e+13 1.15143e+14 0 
3305 0 144.159 2.21319e+18 144.213 139.033 136.662 7477.64 -0.741958 0.715783 2.21298e+18 0 0 1.91906e+13 1.91906e+14 0 
3309 0 144.236 2.21438e+18 150.787 138.16 136.462 7477.5 0.091831 -0.735819 2.2138e+18 0 0 1.15143e+14 4.60574e+14 0 
3313 0 144.067 2.21179e+18 160.862 139.685 136.963 7476.33 0.534275 0.426699 2.21096e+18 1.91906e+13 0 1.53525e+14 6.52479e+14 0 
3317 0 143.923 2.20956e+18 173.901 140.832 137.314 7475.11 -0.301711 0.846975 2.20812e+18 3.83811e+13 0 2.11096e+14 1.18982e+15 0 
3321 0 144.54 2.21904e+18 197.529 144.516 137.962 7473.8 0.916819 -0.0376231 2.21641e+18 1.91906e+13 0 5.94908e+14 1.97663e+15 3.83811e+13 
3429 0 143.981 2.21047e+18 138.188 137.338 136.287 7477.57 0.212157 -0.338118 2.21043e+18 0 0 0 3.83811e+13 0 
3433 0 144.536 2.21899e+18 139.478 137.365 136.366 7476.13 -0.923631 1.51576 2.21895e+18 0 0 0 3.83811e+13 0 
3437 0 144.481 2.21814e+18 141.321 137.281 136.851 7477.26 -0.0213945 0.179046 2.21797e+18 0 0 1.91906e+13 1.53525e+14 0 
3441 0 143.87 2.20876e+18 140.277 138.974 136.739 7477.41 0.15655 -0.0431877 2.20857e+18 1.91906e+13 0 7.67623e+13 9.59528e+13 0 
3445 0 144.63 2.22043e+18 148.217 138.41 136.283 7476.86 -0.601756 0.575422 2.22006e+18 0 0 7.67623e+13 2.87859e+14 0 
3449 0 144.502 2.21847e+18 155.971 138.167 136.765 7476.5 -0.435771 -0.0493194 2.21757e+18 0 0 1.91906e+14 7.10051e+14 0 
3453 0 143.87 2.20876e+18 161.015 139.158 136.931 7475.66 -0.0324896 -0.139885 2.20782e+18 0 0 1.53525e+14 7.48432e+14 3.83811e+13 
3457 0 144.46 2.21782e+18 188.35 142.507 137.184 7475.06 0.860892 1.74752 2.2154e+18 0 0 6.14098e+14 1.72715e+15 7.67623e+13 
3565 0 144.214 2.21404e+18 138.889 137.648 136.36 7476.89 -0.0450484 0.19609 2.214e+18 0 0 0 1.91906e+13 1.91906e+13 
3569 0 144.85 2.2238e+18 140.419 137.631 136.632 7477.03 -0.387217 -0.145726 2.22369e+18 0 0 0 1.15143e+14 0 
3573 0 144.865 2.22403e+18 142.388 138.692 136.811 7477.09 0.472469 0.386797 2.22388e+18 1.91906e+13 0 1.91906e+13 1.15143e+14 0 
3577 0 143.894 2.20912e+18 146.478 138.263 136.626 7476 0.59347 0.402304 2.20885e+18 0 0 5.75717e+13 2.11096e+14 0 
3581 0 144.123 2.21263e+18 149.505 139.446 137.147 7476.14 -1.31574 -0.226841 2.21221e+18 1.91906e+13 0 7.67623e+13 3.2624e+14 0 
3585 0 144.515 2.21866e+18 149.871 138.613 136.624 7477 0.483285 0.223421 2.21807e+18 0 0 9.59528e+13 4.98955e+14 0 
3589 0 144.643 2.22062e+18 160.296 140.522 137.244 7475.3 0.868102 -0.272641 2.21941e+18 3.83811e+13 0 3.4543e+14 8.25194e+14 0 
3593 0 144.42 2.2172e+18 181.389 141.256 137.605 7474.33 -0.0441338 -0.0107561 2.21536e+18 0 0 3.83811e+14 1.45848e+15 0 
3701 0 144.132 2.21279e+18 137.671 138.14 136.551 7477.75 0.0291489 -0.517875 2.21275e+18 0 0 0 3.83811e+13 0 
3705 0 144.539 2.21902e+18 141.911 137.087 136.11 7477.29 -0.283156 -0.195024 2.21889e+18 0 0 0 1.34334e+14 0 
3709 0 144.73 2.22196e+18 145.384 138.368 136.472 7476.79 0.195478 0.546274 2.22173e+18 0 0 0 2.30287e+14 0 
3713 0 143.7 2.20615e+18 143.758 138.362 136.655 7476.45 0.104706 -0.0286743 2.20584e+18 1.91906e+13 0 7.67623e+13 2.11096e+14 0 
3717 0 144.933 2.22507e+18 146.952 139.026 137.173 7477.06 -0.905865 0.462941 2.22467e+18 1.91906e+13 0 1.15143e+14 2.68668e+14 0 
3721 0 144.115 2.21252e+18 150.465 140.868 137.081 7475.93 0.325138 0.232886 2.21162e+18 0 0 3.07049e+14 5.94908e+14 0 
3725 0 143.926 2.20962e+18 157.393 138.046 136.825 7477.02 0.305215 0.325824 2.20878e+18 3.83811e+13 0 1.34334e+14 6.7167e+14 0 
3729 0 144.086 2.21208e+18 186.442 140.728 137.523 7474.63 0.0218812 0.426638 2.20997e+18 0 0 3.4543e+14 1.74634e+15 1.91906e+13 
3733 0 144.873 2.22415e+18 199.017 144.596 137.64 7474.13 0.596654 -0.231474 2.22146e+18 0 0 7.48432e+14 1.93825e+15 0 