ITEM: TIMESTEP
17000
ITEM: NUMBER OF CELLS
10393
ITEM: BOX BOUNDS oo ao pp
-10 10
0 10
-0.5 0.5
ITEM: CELLS id proc f_avg_n f_avg_nrho f_avg_temp_tra f_avg_temp_rot f_avg_temp_vib f_avg_vel[1] f_avg_vel[2] f_avg_vel[3] f_avg_nrho_CO2 f_avg_nrho_O2 f_avg_nrho_C2 f_avg_nrho_CO f_avg_nrho_O f_avg_nrho_C 
1 0 145.447 2.23298e+18 137.749 138.542 136.618 7479.24 6.21651 0.133162 2.23298e+18 0 0 0 0 0 
5 0 154.06 2.3652e+18 139.965 136.704 136.229 7477.56 25.8705 -0.456127 2.3652e+18 0 0 0 0 0 
9 0 160.64 2.46622e+18 146.185 137.562 136.837 7476.78 33.4166 0.188931 2.46614e+18 0 0 3.83811e+13 3.83811e+13 0 
13 0 163.812 2.51492e+18 145.2 138.404 136.228 7477.22 33.9923 -1.43123 2.5145e+18 0 0 0 4.22193e+14 0 
17 0 165.985 2.54828e+18 151.174 136.854 136.58 7477.38 32.0485 0.440597 2.54762e+18 0 0 3.83811e+13 6.14098e+14 0 
21 0 166.127 2.55047e+18 148.776 140.541 137.529 7475.34 28.4667 -0.273387 2.54962e+18 0 0 4.60574e+14 3.83811e+14 0 
25 0 164.17 2.52041e+18 176.135 147.349 137.774 7475.95 23.4497 1.50838 2.51776e+18 3.83811e+13 0 5.75717e+14 2.0342e+15 0 
29 0 162.227 2.49059e+18 182.668 148.578 136.889 7474.62 17.5196 0.237451 2.4879e+18 0 0 7.67623e+14 1.84229e+15 7.67623e+13 
33 0 159.567 2.44975e+18 249.368 148.139 137.992 7468.97 15.5943 -2.92114 2.44503e+18 0 0 9.21147e+14 3.64621e+15 1.53525e+14 
141 0 144.405 2.21697e+18 144.72 137.823 136.046 7476.67 -0.482774 0.0187922 2.2167e+18 0 0 0 2.68668e+14 0 
145 0 143.938 2.20979e+18 143.677 137.979 136.521 7476.26 0.483979 -0.548707 2.20964e+18 0 0 0 1.15143e+14 3.83811e+13 
149 0 144.438 2.21747e+18 147.838 136.872 136.563 7476.67 0.560441 0.311812 2.21724e+18 0 0 3.83811e+13 1.91906e+14 0 
153 0 144.938 2.22515e+18 148.986 139.404 136.607 7476.62 0.126395 0.464695 2.22461e+18 0 0 1.53525e+14 3.83811e+14 0 
157 0 144.882 2.2243e+18 173.871 142.505 136.758 7475.17 0.384114 -0.381605 2.22242e+18 0 0 3.83811e+14 1.45848e+15 3.83811e+13 
161 0 146.285 2.24583e+18 193.62 140.395 137.86 7474.37 2.86792 0.11346 2.24399e+18 0 0 3.83811e+14 1.38172e+15 7.67623e+13 
165 0 147.035 2.25735e+18 196.401 143.14 138.35 7473.43 5.24547 -1.09423 2.2547e+18 0 0 5.37336e+14 1.95744e+15 1.53525e+14 
169 0 147.11 2.2585e+18 233.446 146.891 138.532 7470.79 4.95304 0.60824 2.25389e+18 0 0 9.21147e+14 3.68459e+15 0 
277 0 144.105 2.21237e+18 146.878 138.886 136.396 7478.34 -0.727251 -0.257449 2.21221e+18 0 0 7.67623e+13 7.67623e+13 0 
281 0 144.67 2.22104e+18 155.991 139.428 136.034 7477.02 -0.868097 -0.995702 2.22069e+18 0 0 1.15143e+14 1.91906e+14 3.83811e+13 
285 0 144.398 2.21686e+18 162.782 137.845 136.118 7476.39 -1.29269 2.5239 2.21624e+18 0 0 1.53525e+14 4.60574e+14 0 
289 0 143.107 2.19705e+18 150.81 139.538 136.962 7476.95 1.54928 0.313844 2.19644e+18 0 0 3.4543e+14 2.68668e+14 0 
293 0 144.635 2.2205e+18 148.625 139.69 136.628 7477.06 -1.17661 0.185501 2.21997e+18 0 0 1.91906e+14 3.4543e+14 0 
297 0 143.79 2.20753e+18 165.889 139.485 135.711 7476.21 0.968795 -0.00584821 2.20584e+18 0 0 3.4543e+14 1.34334e+15 0 
301 0 144.325 2.21574e+18 183.974 142.133 137.216 7474.97 1.26309 0.221325 2.21348e+18 0 0 4.22193e+14 1.80391e+15 3.83811e+13 
305 0 144.238 2.2144e+18 226.769 146.661 138.558 7470.93 0.0898733 0.709461 2.21087e+18 0 0 8.06004e+14 2.6483e+15 7.67623e+13 
413 0 144.273 2.21494e+18 141.67 136.761 136.413 7477.06 0.271555 -0.399163 2.21486e+18 0 0 0 7.67623e+13 0 
417 0 144.938 2.22515e+18 138.866 136.974 136.912 7477.16 0.318655 -0.0518668 2.22511e+18 0 0 0 3.83811e+13 0 
421 0 144.165 2.21329e+18 140.863 137.671 136.763 7477.56 -0.210014 -0.651437 2.21313e+18 0 0 3.83811e+13 1.15143e+14 0 
425 0 144.083 2.21202e+18 147.218 137.889 136.581 7476.13 -0.285383 -0.0351894 2.2116e+18 0 0 3.83811e+13 3.4543e+14 3.83811e+13 
429 0 143.843 2.20834e+18 179.002 141.397 136.469 7475.5 0.24712 -1.28829 2.20695e+18 0 0 2.68668e+14 1.11305e+15 0 
433 0 145.338 2.23129e+18 169.501 140.102 137.119 7476.56 -0.660893 0.0623443 2.22987e+18 0 0 3.4543e+14 1.07467e+15 0 
437 0 144.525 2.21881e+18 199.481 141.92 137.702 7473.79 -0.783587 0.65617 2.21666e+18 0 0 4.98955e+14 1.65039e+15 0 
441 0 143.405 2.20162e+18 225.753 143.975 137.672 7472.81 -0.0388204 0.398663 2.19809e+18 0 0 6.14098e+14 2.87859e+15 3.83811e+13 
445 0 145.493 2.23367e+18 301.883 150.183 138.458 7467.59 -0.607461 -0.38448 2.22649e+18 0 0 1.61201e+15 5.37336e+15 1.91906e+14 
549 0 144.495 2.21835e+18 145.374 137.714 136.614 7477.2 -1.26393 0.0772751 2.21824e+18 0 0 3.83811e+13 7.67623e+13 0 
553 0 143.59 2.20446e+18 142.891 136.509 136.561 7476.91 -0.254219 0.397807 2.20415e+18 0 0 3.83811e+13 2.30287e+14 3.83811e+13 
557 0 144.648 2.22069e+18 141.198 137.797 136.357 7477.32 0.416069 0.75318 2.22035e+18 0 0 1.15143e+14 2.30287e+14 0 
561 0 144.357 2.21624e+18 143.416 137.749 136.586 7477.54 0.242958 -0.55769 2.21586e+18 0 0 1.15143e+14 2.30287e+14 3.83811e+13 
565 0 144.273 2.21494e+18 150.508 138.63 136.637 7476.59 -0.150103 -0.328914 2.21436e+18 0 0 1.15143e+14 4.60574e+14 0 
569 0 144.42 2.2172e+18 154.43 140.424 136.46 7476.49 0.0197449 0.0673869 2.21643e+18 0 0 2.68668e+14 4.98955e+14 0 
573 0 145.235 2.22971e+18 191.916 141.946 137.035 7474.77 1.38705 -0.0420631 2.22741e+18 0 0 4.98955e+14 1.80391e+15 0 
577 0 144.593 2.21985e+18 197.584 141.551 138.286 7473.75 -0.87471 -0.538853 2.21693e+18 3.83811e+13 0 4.98955e+14 2.30287e+15 7.67623e+13 
581 0 144.155 2.21313e+18 273.147 153.601 139.396 7469.17 0.712163 0.510275 2.20726e+18 3.83811e+13 0 1.4201e+15 4.26031e+15 1.53525e+14 
689 0 144.507 2.21854e+18 142.141 137.18 137.238 7477.55 -1.33661 -0.401092 2.21847e+18 0 0 3.83811e+13 3.83811e+13 0 
693 0 144.623 2.22031e+18 150.357 138.277 136.513 7477.25 0.353298 1.94497 2.22e+18 0 0 0 2.68668e+14 3.83811e+13 
697 0 143.625 2.205e+18 150.366 139.849 136.304 7477.26 0.212697 0.220316 2.20461e+18 0 0 0 3.4543e+14 3.83811e+13 
701 0 143.532 2.20358e+18 159.827 138.35 137.123 7475.88 0.133752 -0.171306 2.203e+18 0 0 1.15143e+14 4.60574e+14 0 
705 0 143.787 2.20749e+18 146.531 140.893 137.563 7475.87 -0.797769 -0.388388 2.20676e+18 0 0 2.68668e+14 3.83811e+14 7.67623e+13 
709 0 144.702 2.22154e+18 168.672 139.539 136.712 7476.53 -0.723244 0.985408 2.22004e+18 0 0 3.07049e+14 1.18982e+15 0 
713 0 144.54 2.21904e+18 214.104 141.737 138.18 7472.81 0.481381 -0.780216 2.2162e+18 0 0 4.98955e+14 2.22611e+15 1.15143e+14 
717 0 144.395 2.21682e+18 239.566 145.989 138.015 7470.23 -0.0749936 0.252775 2.21286e+18 3.83811e+13 0 9.9791e+14 2.8402e+15 7.67623e+13 
825 0 143.998 2.21072e+18 142.953 137.154 136.443 7477.53 -0.625103 -0.876559 2.2106e+18 0 0 0 1.15143e+14 0 
829 0 144.393 2.21678e+18 147.125 137.557 135.677 7476.03 -1.40294 0.17223 2.21655e+18 0 0 3.83811e+13 1.91906e+14 0 
833 0 144.808 2.22315e+18 149.8 137.635 136.896 7477.49 -0.579472 -0.501131 2.22281e+18 0 0 0 3.4543e+14 0 
837 0 143.833 2.20818e+18 145.609 137.445 137.063 7477.72 0.709506 0.564153 2.20803e+18 0 0 0 1.53525e+14 0 
841 0 144.415 2.21712e+18 153.674 139.321 136.205 7477.16 -0.380921 -0.572232 2.21659e+18 0 0 3.83811e+13 4.98955e+14 0 
845 0 143.76 2.20707e+18 157.745 140.789 137.229 7476.96 1.37574 -0.181057 2.20592e+18 0 0 2.30287e+14 9.21147e+14 0 
849 0 144.555 2.21927e+18 204.344 142.559 137.062 7474.33 0.0970922 1.85138 2.21682e+18 3.83811e+13 0 4.60574e+14 1.76553e+15 1.91906e+14 
853 0 144.17 2.21336e+18 233.075 144.897 137.281 7472.91 1.04673 0.0458574 2.20937e+18 0 0 1.15143e+15 2.72506e+15 1.15143e+14 
961 0 144.74 2.22211e+18 143.997 137.578 136.731 7477.13 1.20019 0.222045 2.22196e+18 0 0 0 1.15143e+14 3.83811e+13 
965 0 143.255 2.19932e+18 144.94 137.416 136.711 7476.42 0.0972693 -1.01723 2.19905e+18 0 0 0 2.30287e+14 3.83811e+13 
969 0 143.713 2.20634e+18 149.74 136.743 137.074 7477.02 0.396586 0.150723 2.20603e+18 0 0 3.83811e+13 2.68668e+14 0 
973 0 144.445 2.21759e+18 153.793 138.919 137.423 7476.41 0.0113807 -0.087957 2.21709e+18 0 0 3.83811e+13 4.22193e+14 3.83811e+13 
977 0 144.817 2.2233e+18 153.297 138.302 136.982 7477.03 0.468612 -0.542267 2.22277e+18 0 0 3.83811e+13 4.22193e+14 7.67623e+13 
981 0 143.847 2.20841e+18 159.909 139.341 138.084 7476.3 -0.215288 0.493887 2.20749e+18 0 0 2.68668e+14 6.52479e+14 0 
985 0 144.335 2.2159e+18 196.568 144.385 137.475 7474.29 -0.0663686 -0.305508 2.21356e+18 3.83811e+13 0 5.37336e+14 1.76553e+15 0 
989 0 145.22 2.22948e+18 227.833 147.66 138.502 7471.7 -0.313651 0.338592 2.22572e+18 3.83811e+13 0 8.82766e+14 2.72506e+15 1.15143e+14 
993 0 143.993 2.21064e+18 267.077 153.401 139.698 7469.82 0.543121 -0.0479195 2.2045e+18 1.15143e+14 0 1.72715e+15 4.22193e+15 7.67623e+13 
1097 0 143.935 2.20976e+18 145.662 138.005 136.373 7477.68 -0.616137 1.23017 2.2096e+18 0 0 0 1.53525e+14 0 
1101 0 143.645 2.2053e+18 138.705 136.217 136.568 7477.46 0.69091 1.05121 2.20527e+18 0 0 0 3.83811e+13 0 
1105 0 144.24 2.21444e+18 142.07 139.67 136.47 7477.47 -0.293343 -0.168084 2.21425e+18 0 0 3.83811e+13 1.53525e+14 0 
1109 0 143.882 2.20895e+18 142.058 138.08 136.711 7477.46 -0.6091 0.341617 2.20864e+18 0 0 7.67623e+13 2.30287e+14 0 
1113 0 144.615 2.2202e+18 157.778 139.35 136.944 7477.92 -0.983192 0.0367773 2.21954e+18 0 0 1.91906e+14 4.60574e+14 0 
1117 0 145.84 2.239e+18 162.309 138.317 136.685 7477.14 0.121387 -0.76205 2.23808e+18 0 0 2.30287e+14 6.90861e+14 0 
1121 0 144.708 2.22162e+18 166.13 139.529 136.712 7476.64 -1.07854 0.164122 2.22023e+18 0 0 3.83811e+14 9.9791e+14 0 
1125 0 143.803 2.20772e+18 210.772 145.112 137.654 7474.16 -0.16773 1.42368 2.20542e+18 0 0 3.83811e+14 1.91906e+15 0 
1129 0 145.435 2.23278e+18 251.475 145.694 138.192 7470.63 1.02781 0.139252 2.22814e+18 7.67623e+13 0 8.44385e+14 3.68459e+15 3.83811e+13 
1237 0 145.13 2.2281e+18 142.617 137.241 136.734 7477.53 -2.08347 0.0383527 2.22799e+18 0 0 0 7.67623e+13 3.83811e+13 
1241 0 143.905 2.2093e+18 138.616 138.541 136.407 7476.75 -0.249207 -0.862289 2.20903e+18 0 0 1.15143e+14 1.53525e+14 0 
1245 0 144.468 2.21793e+18 148.601 139.029 136.409 7477.26 -0.0331308 0.957946 2.21762e+18 0 0 3.83811e+13 2.68668e+14 0 
1249 0 144.572 2.21954e+18 146.003 137.184 136.879 7476.21 -0.639686 0.291561 2.2192e+18 0 0 3.83811e+13 3.07049e+14 0 
1253 0 144.292 2.21524e+18 157.099 137.475 136.26 7475.72 0.539717 0.0136022 2.21451e+18 0 0 3.83811e+13 6.52479e+14 3.83811e+13 
1257 0 144.032 2.21125e+18 173.497 142.275 135.905 7475.08 0.0158358 0.273612 2.20953e+18 3.83811e+13 0 4.60574e+14 1.11305e+15 1.15143e+14 
1261 0 144.975 2.22572e+18 194.464 144.876 137.571 7473.83 0.58434 -0.0206243 2.2233e+18 0 0 7.67623e+14 1.65039e+15 0 
1265 0 144.225 2.21421e+18 248.271 142.464 138.283 7471.58 0.19486 0.227174 2.20999e+18 0 0 1.07467e+15 3.10887e+15 3.83811e+13 
1373 0 144.238 2.2144e+18 145.4 136.913 136.926 7476.8 -0.433577 0.734878 2.21428e+18 0 0 3.83811e+13 7.67623e+13 0 
1377 0 144.18 2.21352e+18 144.84 136.815 136.54 7477.29 0.941295 0.257917 2.2134e+18 0 0 3.83811e+13 7.67623e+13 0 
1381 0 144.225 2.21421e+18 148.675 136.807 136.036 7476.32 -0.360151 0.463606 2.21394e+18 0 0 0 2.68668e+14 0 
1385 0 144.572 2.21954e+18 150.175 138.828 136.923 7476.99 0.216666 0.829796 2.21908e+18 0 0 1.15143e+14 3.4543e+14 0 
1389 0 143.988 2.21056e+18 172.101 139.367 136.855 7476.19 0.102073 0.377772 2.20926e+18 0 0 1.91906e+14 1.11305e+15 0 
1393 0 144.24 2.21444e+18 159.524 140.919 137.074 7475.87 -0.398896 0.400532 2.21344e+18 3.83811e+13 0 2.68668e+14 5.75717e+14 1.15143e+14 
1397 0 145.615 2.23555e+18 175.568 140.88 137.255 7475.89 0.0506737 1.71224 2.2339e+18 0 0 4.22193e+14 1.15143e+15 7.67623e+13 
1401 0 144.74 2.22211e+18 210.583 146.236 138.137 7473.61 0.638056 0.64935 2.21912e+18 3.83811e+13 0 6.90861e+14 2.18772e+15 7.67623e+13 
1509 0 144.59 2.21981e+18 138.5 137.296 135.854 7476.97 -0.338484 -1.10185 2.21977e+18 0 0 0 3.83811e+13 0 
1513 0 143.765 2.20715e+18 138.23 137.114 136.994 7478.01 -1.82878 -0.141015 2.20703e+18 0 0 3.83811e+13 7.67623e+13 0 
1517 0 144.433 2.21739e+18 145.842 137.708 137.21 7477.28 -0.0245109 0.27603 2.2172e+18 0 0 0 1.91906e+14 0 
1521 0 144.865 2.22403e+18 146.655 136.829 136.044 7477.26 -0.114669 -0.50603 2.22376e+18 0 0 3.83811e+13 2.30287e+14 0 
1525 0 143.688 2.20596e+18 156.541 138.756 136.363 7477.02 -1.60854 0.683038 2.20523e+18 0 0 1.53525e+14 5.37336e+14 3.83811e+13 
1529 0 143.015 2.19563e+18 178.161 141.981 137.744 7475.33 -0.784522 0.410967 2.19456e+18 0 0 3.83811e+14 6.90861e+14 0 
1533 0 144.16 2.21321e+18 179.062 140.491 136.878 7475.44 0.731677 0.0900574 2.21133e+18 0 0 4.22193e+14 1.4201e+15 3.83811e+13 
1537 0 145.145 2.22833e+18 220.143 142.781 137.599 7473.68 -0.958818 0.386162 2.22534e+18 0 0 6.14098e+14 2.37963e+15 0 
1541 0 144.433 2.21739e+18 280.929 151.86 138.806 7469.27 1.27475 0.834708 2.21214e+18 0 0 1.30496e+15 3.8765e+15 7.67623e+13 
1645 0 144.162 2.21325e+18 140.833 138.184 136.556 7477.27 -0.257897 0.33933 2.21317e+18 0 0 0 7.67623e+13 0 
1649 0 143.825 2.20807e+18 144.038 137.399 136.527 7476.44 -1.11541 0.566499 2.20791e+18 0 0 3.83811e+13 1.15143e+14 0 
1653 0 144.697 2.22146e+18 146.599 139.395 136.512 7476.76 0.456458 -0.8223 2.22119e+18 0 0 3.83811e+13 1.91906e+14 3.83811e+13 
1657 0 144.51 2.21858e+18 145.639 138.843 136.336 7477.16 -0.624114 -0.522092 2.21824e+18 0 0 7.67623e+13 2.68668e+14 0 
1661 0 143.805 2.20776e+18 146.204 138.334 136.213 7476.28 -0.20599 0.182598 2.20734e+18 0 0 1.15143e+14 2.68668e+14 3.83811e+13 
1665 0 144.735 2.22204e+18 150.723 138.92 136.265 7477.1 0.921935 -0.473331 2.22162e+18 0 0 7.67623e+13 3.4543e+14 0 
1669 0 144.898 2.22453e+18 165.6 141.685 136.944 7476 -0.726204 -1.59763 2.22353e+18 0 0 1.53525e+14 8.06004e+14 3.83811e+13 
1673 0 144.407 2.21701e+18 194.084 145.323 137.504 7473.84 1.44808 -1.07146 2.21451e+18 0 0 5.75717e+14 1.88068e+15 3.83811e+13 
1677 0 144.01 2.21091e+18 219.351 145.611 138.605 7472.52 1.37068 -1.69956 2.20715e+18 0 0 1.07467e+15 2.57154e+15 1.15143e+14 
1785 0 144.43 2.21736e+18 142.123 137.998 136.365 7476.46 0.866816 -0.483289 2.2172e+18 0 0 3.83811e+13 1.15143e+14 0 
1789 0 144.5 2.21843e+18 142.697 137.083 136.396 7476.95 1.71142 0.941059 2.21831e+18 0 0 0 7.67623e+13 3.83811e+13 
1793 0 144.208 2.21394e+18 141.998 137.231 136.517 7476.63 -0.0092573 0.516219 2.21367e+18 0 0 0 1.91906e+14 7.67623e+13 
1797 0 145.243 2.22983e+18 140.52 137.837 136.557 7477.53 -0.116565 0.0142964 2.22952e+18 0 0 7.67623e+13 2.30287e+14 0 
1801 0 144.363 2.21632e+18 155.986 138.294 135.989 7475.96 1.49885 0.971163 2.21555e+18 0 0 7.67623e+13 6.52479e+14 3.83811e+13 
1805 0 145.53 2.23424e+18 171.225 140.719 137.398 7475.78 0.0923728 0.742237 2.2329e+18 0 0 3.4543e+14 9.59528e+14 3.83811e+13 
1809 0 145.218 2.22945e+18 175.678 141.328 137.933 7475.75 -0.442561 -0.663933 2.22749e+18 0 0 5.75717e+14 1.34334e+15 3.83811e+13 
1813 0 144.173 2.2134e+18 225.776 145.815 137.629 7472.02 0.794918 -0.431175 2.20991e+18 0 0 1.07467e+15 2.34125e+15 7.67623e+13 
1921 0 143.743 2.2068e+18 137.146 137.282 137.26 7477.36 -0.792177 0.0524903 2.2068e+18 0 0 0 0 0 
1925 0 144.685 2.22127e+18 139.623 137.652 136.482 7476.9 -0.542104 -0.0673994 2.22119e+18 0 0 0 7.67623e+13 0 
1929 0 143.798 2.20764e+18 137.778 137.107 136.104 7475.93 -0.074105 0.348425 2.20761e+18 0 0 0 3.83811e+13 0 
1933 0 143.438 2.20212e+18 146.382 138.994 136.576 7477.03 -1.368 0.337744 2.20185e+18 0 0 3.83811e+13 2.30287e+14 0 
1937 0 145.27 2.23025e+18 166.606 140.416 137.632 7476.09 0.177511 -0.132894 2.22906e+18 0 0 3.83811e+14 7.29242e+14 7.67623e+13 
1941 0 144.595 2.21989e+18 156.423 138.131 135.924 7476.46 -0.719009 -0.0542351 2.21931e+18 0 0 1.15143e+14 4.60574e+14 0 
1945 0 144.157 2.21317e+18 177.751 142.241 136.84 7474.82 1.46536 -0.719482 2.21179e+18 0 0 2.68668e+14 1.03629e+15 7.67623e+13 
1949 0 143.305 2.20008e+18 220.42 145.627 137.702 7471.24 0.0372797 -0.291767 2.19613e+18 0 0 9.21147e+14 2.99373e+15 3.83811e+13 
2057 0 143.852 2.20849e+18 138.179 137.726 137.02 7477.05 0.40753 -0.70592 2.20845e+18 0 0 0 3.83811e+13 0 
2061 0 144.192 2.21371e+18 139.582 138.186 136.609 7478.08 0.359385 -0.325136 2.21367e+18 0 0 0 3.83811e+13 0 
2065 0 144.75 2.22227e+18 141.699 137.677 136.485 7478.54 -0.0993674 0.82647 2.22223e+18 0 0 0 3.83811e+13 0 
2069 0 144.188 2.21363e+18 143.721 137.722 137.413 7477.84 0.951573 0.568889 2.21333e+18 0 0 3.83811e+13 2.68668e+14 0 
2073 0 144.833 2.22353e+18 151.398 138.23 137.166 7477.63 0.278994 0.199359 2.22292e+18 0 0 1.53525e+14 3.83811e+14 7.67623e+13 
2077 0 145.018 2.22637e+18 165.123 141.191 137.646 7476.5 -0.520298 1.81274 2.22534e+18 0 0 2.68668e+14 7.29242e+14 3.83811e+13 
2081 0 143.915 2.20945e+18 175.716 140.554 137.543 7475.1 -0.0142579 0.487595 2.20757e+18 0 0 4.60574e+14 1.38172e+15 3.83811e+13 
2085 0 144.162 2.21325e+18 203.137 141.863 137.618 7473.68 0.28238 1.03592 2.21041e+18 0 0 7.29242e+14 1.99582e+15 1.15143e+14 
2089 0 144.333 2.21586e+18 268.977 146.366 137.871 7470.7 0.670749 1.03281 2.21048e+18 3.83811e+13 0 1.07467e+15 4.18354e+15 7.67623e+13 
2193 0 144.305 2.21544e+18 139.223 138.419 136.716 7477.32 0.10698 0.691867 2.2154e+18 0 0 0 3.83811e+13 0 
2197 0 144.213 2.21402e+18 143.787 137.436 136.484 7477.57 -0.232333 0.998211 2.2139e+18 0 0 0 1.15143e+14 0 
2201 0 143.805 2.20776e+18 149.533 137.075 136.275 7477.82 -0.0480979 0.480032 2.20745e+18 0 0 0 3.07049e+14 0 
2205 0 144.197 2.21379e+18 148.42 138.455 136.449 7477.19 0.337804 0.258292 2.21344e+18 0 0 3.83811e+13 2.68668e+14 3.83811e+13 
2209 0 144.205 2.2139e+18 139.333 137.964 136.245 7476.74 0.372923 1.70439 2.21379e+18 0 0 7.67623e+13 3.83811e+13 0 
2213 0 143.393 2.20143e+18 154.871 138.836 137.053 7476.09 0.643882 -0.410824 2.20089e+18 0 0 1.15143e+14 4.22193e+14 0 
2217 0 145.132 2.22814e+18 171.777 140.338 137.073 7476.49 1.3543 1.05218 2.22691e+18 0 0 2.30287e+14 9.59528e+14 3.83811e+13 
2221 0 145.542 2.23443e+18 180.895 142.971 137.462 7474.91 0.017371 1.13462 2.23179e+18 0 0 5.75717e+14 1.88068e+15 1.91906e+14 
2225 0 144.917 2.22484e+18 239.973 145.5 138.016 7471.97 0.710698 -0.313205 2.22096e+18 3.83811e+13 0 8.44385e+14 2.91697e+15 7.67623e+13 
2333 0 144.572 2.21954e+18 144.816 137.317 136.48 7477.74 -0.277289 1.98975 2.21939e+18 0 0 3.83811e+13 1.15143e+14 0 
2337 0 144.165 2.21329e+18 142.739 137.652 136.055 7476.23 0.322517 -0.377235 2.21317e+18 0 0 0 1.15143e+14 0 
2341 0 144.452 2.2177e+18 138.195 137.727 137.001 7478.02 -0.20846 -1.15877 2.21759e+18 0 0 3.83811e+13 7.67623e+13 0 
2345 0 144.192 2.21371e+18 149.634 139.274 136.621 7476.25 -0.287047 0.453428 2.21336e+18 0 0 1.15143e+14 2.30287e+14 0 
2349 0 144.162 2.21325e+18 141.043 136.962 136.682 7476.37 -0.348153 -0.532865 2.21309e+18 0 0 3.83811e+13 1.15143e+14 0 
2353 0 144.333 2.21586e+18 158.453 137.586 136.396 7476.3 0.913503 0.571916 2.21494e+18 0 0 1.53525e+14 6.90861e+14 7.67623e+13 
2357 0 144.498 2.21839e+18 173.802 141.89 136.61 7474.86 -0.464247 -0.129651 2.2164e+18 0 0 3.83811e+14 1.53525e+15 7.67623e+13 
2361 0 145.917 2.24019e+18 216.908 142.878 137.25 7472.07 0.273368 -0.200853 2.23674e+18 0 0 8.82766e+14 2.49477e+15 7.67623e+13 
2469 0 144.175 2.21344e+18 137.573 137.695 136.574 7477.52 0.23712 0.010696 2.21344e+18 0 0 0 0 0 
2473 0 144.115 2.21252e+18 143.979 137.688 135.636 7477.5 -0.691719 -0.780491 2.21233e+18 0 0 0 1.53525e+14 3.83811e+13 
2477 0 144.345 2.21605e+18 150.355 138.119 136.914 7476.81 -0.719069 -0.228838 2.21582e+18 0 0 7.67623e+13 1.53525e+14 0 
2481 0 144.018 2.21102e+18 146.744 137.78 136.75 7476.98 0.0883781 -1.15569 2.21052e+18 0 0 7.67623e+13 4.22193e+14 0 
2485 0 144.067 2.21179e+18 152.985 139.725 136.28 7477.47 -0.721202 -0.241195 2.21125e+18 0 0 7.67623e+13 4.60574e+14 0 
2489 0 144.407 2.21701e+18 161.012 138.179 136.872 7476.41 -0.213537 1.34061 2.21628e+18 0 0 7.67623e+13 6.52479e+14 0 
2493 0 144.585 2.21973e+18 166.724 139.282 136.89 7475.83 -0.0448006 1.39541 2.21835e+18 0 0 3.07049e+14 1.07467e+15 0 
2497 0 144.48 2.21812e+18 197.897 141.795 137.096 7473.02 -1.04802 0.080855 2.2154e+18 0 0 5.37336e+14 2.18772e+15 0 
2605 0 144.373 2.21647e+18 143.028 137.842 136.645 7477.3 -0.610974 0.347499 2.21617e+18 0 0 0 2.68668e+14 3.83811e+13 
2609 0 144.553 2.21924e+18 142.972 137.541 136.012 7476.07 -0.531413 0.795992 2.21912e+18 0 0 0 1.15143e+14 0 
2613 0 143.627 2.20503e+18 141.328 137.907 136.45 7476.79 0.256855 0.155399 2.20492e+18 0 0 0 1.15143e+14 0 
2617 0 143.838 2.20826e+18 146.171 136.828 136.592 7478.19 -1.17224 -0.450485 2.20799e+18 0 0 7.67623e+13 1.91906e+14 0 
2621 0 144.04 2.21137e+18 144.531 138.158 136.415 7476.47 0.463437 -0.11978 2.21091e+18 0 0 7.67623e+13 3.83811e+14 0 
2625 0 144.768 2.22254e+18 165.564 137.862 136.825 7475.88 0.35934 0.447819 2.22177e+18 0 0 1.15143e+14 6.14098e+14 3.83811e+13 
2629 0 143.713 2.20634e+18 181.814 140.468 137.249 7474.96 -1.09921 0.28266 2.20465e+18 3.83811e+13 0 3.83811e+14 1.2282e+15 3.83811e+13 
2633 0 143.923 2.20956e+18 188.361 140.26 137.022 7474.67 -0.316084 -0.395672 2.20764e+18 0 0 3.07049e+14 1.61201e+15 0 
2637 0 144.265 2.21482e+18 224.912 148.037 138.274 7471.97 -0.366479 -0.14342 2.21018e+18 0 0 1.2282e+15 3.33916e+15 7.67623e+13 
2741 0 144.838 2.22361e+18 142.494 138.562 136.724 7477.22 -1.02145 0.120741 2.22342e+18 0 0 3.83811e+13 1.53525e+14 0 
2745 0 144.562 2.21939e+18 137.672 136.817 137.231 7476.17 0.0455147 0.405153 2.21935e+18 0 0 0 3.83811e+13 0 
2749 0 143.875 2.20883e+18 141.458 137.27 136.006 7476.04 -0.343913 1.18699 2.20868e+18 0 0 0 1.53525e+14 0 
2753 0 144.455 2.21774e+18 144.335 139.123 135.969 7476.65 0.370659 0.529873 2.21755e+18 0 0 0 1.91906e+14 0 
2757 0 145.067 2.22714e+18 144.359 138.502 137.091 7476.41 0.349373 0.557538 2.22684e+18 0 0 0 3.07049e+14 0 
2761 0 144.023 2.2111e+18 158.689 138.52 137.282 7475.52 0.329686 0.799629 2.21045e+18 0 0 2.30287e+14 3.83811e+14 3.83811e+13 
2765 0 144.403 2.21693e+18 162.876 139.552 136.615 7475.24 0.995307 -0.0761675 2.21578e+18 0 0 1.91906e+14 8.82766e+14 7.67623e+13 
2769 0 143.935 2.20976e+18 196.139 141.435 137.124 7474.22 0.272895 0.296413 2.20757e+18 0 0 5.75717e+14 1.53525e+15 7.67623e+13 
2773 0 144.972 2.22568e+18 213.754 144.654 137.642 7473.04 0.97561 0.723474 2.22246e+18 3.83811e+13 0 6.14098e+14 2.53316e+15 3.83811e+13 
2881 0 144.595 2.21989e+18 140.441 137.845 136.57 7478.02 0.065931 0.141751 2.21973e+18 0 0 3.83811e+13 7.67623e+13 3.83811e+13 
2885 0 143.985 2.21052e+18 145.652 136.924 136.028 7477.1 -0.213255 -0.627944 2.21037e+18 0 0 3.83811e+13 1.15143e+14 0 
2889 0 144.238 2.2144e+18 139.662 136.893 136.155 7476.73 0.601602 -1.03484 2.21436e+18 0 0 0 3.83811e+13 0 
2893 0 144.627 2.22039e+18 140.898 138.898 136.059 7477.2 -0.556322 0.408133 2.22012e+18 0 0 0 2.30287e+14 3.83811e+13 
2897 0 144.075 2.21191e+18 153.091 137.497 136.249 7476.82 0.480227 -1.61279 2.21144e+18 0 0 1.15143e+14 3.4543e+14 0 
2901 0 144.99 2.22595e+18 155.11 136.816 136.666 7476.78 -0.657259 -1.30981 2.22526e+18 0 0 7.67623e+13 6.14098e+14 0 
2905 0 145.325 2.2311e+18 177.573 142 137.192 7475.46 0.193318 0.340529 2.22945e+18 0 0 3.07049e+14 1.26658e+15 7.67623e+13 
2909 0 143.648 2.20534e+18 187.942 144.633 138.222 7473.92 -0.351675 -0.0780573 2.20304e+18 0 0 5.37336e+14 1.65039e+15 1.15143e+14 
3017 0 144.48 2.21812e+18 139.447 136.997 136.125 7477.8 -0.985718 0.657836 2.21808e+18 0 0 0 3.83811e+13 0 
3021 0 144.315 2.21559e+18 137.571 138.548 136.887 7477.47 -1.92675 0.404078 2.21559e+18 0 0 0 0 0 
3025 0 143.94 2.20983e+18 141.011 137.211 136.71 7476.67 0.274248 -0.520395 2.20964e+18 0 0 3.83811e+13 1.53525e+14 0 
3029 0 144.602 2.22e+18 144.402 137.828 136.454 7476.92 -0.581773 1.06927 2.2197e+18 0 0 3.83811e+13 2.68668e+14 0 
3033 0 144.243 2.21448e+18 153.566 138.836 136.756 7476.64 -1.07772 0.0863587 2.21398e+18 0 0 7.67623e+13 3.83811e+14 3.83811e+13 
3037 0 144.815 2.22327e+18 149.151 138.664 136.898 7476.11 0.943674 -0.551864 2.22265e+18 0 0 1.15143e+14 4.98955e+14 0 
3041 0 145.153 2.22845e+18 172.326 139.492 136.928 7475.78 -0.294831 -0.423221 2.22726e+18 3.83811e+13 0 1.91906e+14 9.59528e+14 0 
3045 0 144.368 2.2164e+18 197.813 143.873 137.265 7474.44 0.605041 0.304636 2.21398e+18 3.83811e+13 0 4.98955e+14 1.76553e+15 1.15143e+14 
3153 0 144.222 2.21417e+18 137.666 137.003 136.964 7477.88 0.364356 0.34184 2.21417e+18 0 0 0 0 0 
3157 0 144.045 2.21144e+18 146.278 137.248 136.273 7477.99 -0.263989 0.0272701 2.21129e+18 0 0 0 1.53525e+14 0 
3161 0 144.002 2.21079e+18 139.245 138.045 136.444 7477.27 -0.379881 1.17497 2.21075e+18 0 0 0 0 3.83811e+13 
3165 0 143.798 2.20764e+18 140.978 137.441 136.675 7476.85 -1.02726 1.53889 2.20749e+18 0 0 0 1.53525e+14 0 
3169 0 143.905 2.2093e+18 148.331 138.199 136.666 7476.81 -0.603764 0.248476 2.20891e+18 0 0 0 3.83811e+14 0 
3173 0 143.835 2.20822e+18 158.647 139.849 136.861 7476.56 -0.312207 0.409251 2.20738e+18 3.83811e+13 0 7.67623e+13 6.52479e+14 7.67623e+13 
3177 0 143.952 2.21002e+18 171.569 140.828 136.346 7475.17 0.0931683 1.65774 2.20872e+18 7.67623e+13 0 2.30287e+14 9.9791e+14 0 
3181 0 144.778 2.22269e+18 184.15 141.802 137.83 7475.25 0.496395 0.558753 2.22062e+18 0 0 5.75717e+14 1.49686e+15 0 
3185 0 144.248 2.21455e+18 206.363 146.578 138.388 7473.95 0.475594 0.863264 2.21095e+18 3.83811e+13 0 8.44385e+14 2.6483e+15 7.67623e+13 
3289 0 144.445 2.21759e+18 138.51 137.509 136.541 7477.5 0.29829 0.466727 2.21755e+18 0 0 0 3.83811e+13 0 
3293 0 144.465 2.21789e+18 137.332 138.493 136.487 7477.55 0.00749933 1.07157 2.21785e+18 0 0 3.83811e+13 0 0 
3297 0 144.373 2.21647e+18 145.363 137.28 136.429 7477.68 -1.36184 0.191786 2.21624e+18 0 0 0 2.30287e+14 0 
3301 0 143.91 2.20937e+18 141.895 138.562 136.1 7477.75 0.251611 0.334197 2.20926e+18 0 0 7.67623e+13 3.83811e+13 0 
3305 0 144.403 2.21693e+18 146.503 138.758 136.583 7477.58 -1.30543 0.355665 2.21666e+18 0 0 3.83811e+13 2.30287e+14 0 
3309 0 145.13 2.2281e+18 152.263 138.045 136.402 7477.97 -0.522001 -0.709264 2.22741e+18 0 0 1.53525e+14 5.37336e+14 0 
3313 0 144.398 2.21686e+18 165.649 140.483 137.328 7476.45 -0.263565 -0.314764 2.21586e+18 3.83811e+13 0 2.30287e+14 7.29242e+14 0 
3317 0 143.972 2.21033e+18 184.701 140.745 137.173 7474.99 -0.154642 0.276893 2.2086e+18 3.83811e+13 0 2.68668e+14 1.4201e+15 0 
3321 0 144.69 2.22135e+18 211.525 144.689 137.81 7473.19 1.03843 -0.386903 2.21828e+18 3.83811e+13 0 6.52479e+14 2.30287e+15 7.67623e+13 
3429 0 143.645 2.2053e+18 136.354 137.046 135.897 7478.14 0.110894 -1.08024 2.2053e+18 0 0 0 0 0 
3433 0 144.488 2.21824e+18 139.3 137.073 135.939 7476.41 -1.38604 1.29098 2.21816e+18 0 0 0 7.67623e+13 0 
3437 0 144.583 2.2197e+18 141.907 137.291 136.959 7478.23 -0.818991 0.521479 2.21954e+18 0 0 3.83811e+13 1.15143e+14 0 
3441 0 143.808 2.2078e+18 139.875 136.46 136.617 7477.81 0.736444 -0.321035 2.20772e+18 0 0 3.83811e+13 3.83811e+13 0 
3445 0 144.822 2.22338e+18 153.511 139.777 136.552 7476.81 -1.0113 -0.240638 2.22288e+18 0 0 1.15143e+14 3.83811e+14 0 
3449 0 143.868 2.20872e+18 160.769 138.379 136.752 7477.16 -1.00994 0.305819 2.20784e+18 0 0 1.91906e+14 6.90861e+14 0 
3453 0 143.588 2.20442e+18 159.63 136.86 136.97 7476.17 -0.0689106 -0.992233 2.20365e+18 0 0 7.67623e+13 6.14098e+14 7.67623e+13 
3457 0 145.04 2.22672e+18 187.667 141.081 137.077 7475.81 0.576691 0.989633 2.22442e+18 0 0 4.98955e+14 1.68877e+15 1.15143e+14 
3565 0 143.59 2.20446e+18 138.85 137.781 136.208 7477.15 0.507398 -0.39101 2.20442e+18 0 0 0 3.83811e+13 0 
3569 0 145.037 2.22668e+18 139.992 137.58 136.477 7476.22 -1.16512 -0.604576 2.22661e+18 0 0 0 7.67623e+13 0 
3573 0 145.162 2.2286e+18 144.068 138.03 136.894 7477.09 0.369633 -0.197737 2.22841e+18 0 0 0 1.91906e+14 0 
3577 0 143.738 2.20672e+18 144.564 137.84 136.229 7476.49 0.704371 0.160318 2.20642e+18 0 0 7.67623e+13 2.30287e+14 0 
3581 0 144.447 2.21762e+18 153.984 139.77 137.053 7475.15 -1.74869 0.0188559 2.21712e+18 0 0 7.67623e+13 4.22193e+14 0 
3585 0 143.92 2.20953e+18 143.663 137.456 136.792 7477.26 -0.219058 0.243417 2.20895e+18 0 0 1.15143e+14 4.60574e+14 0 
3589 0 144.48 2.21812e+18 162.846 141.538 137.464 7474.91 0.23692 0.433774 2.21686e+18 7.67623e+13 0 3.83811e+14 8.06004e+14 0 
3593 0 144.595 2.21989e+18 186.944 141.676 137.577 7473.92 0.0204474 -0.475227 2.21797e+18 0 0 3.07049e+14 1.61201e+15 0 
3701 0 144.445 2.21759e+18 137.118 137.764 136.666 7477.59 0.187465 0.132627 2.21751e+18 0 0 0 7.67623e+13 0 
3705 0 144.393 2.21678e+18 145.308 136.989 135.701 7477.35 -0.404794 -0.191105 2.21655e+18 0 0 0 2.30287e+14 0 
3709 0 144.87 2.22411e+18 146.789 138.303 136.357 7476.9 0.206753 0.200696 2.22384e+18 0 0 0 2.68668e+14 0 
3713 0 143.887 2.20903e+18 143.835 139.316 136.659 7475.83 -0.486684 0.431837 2.20857e+18 3.83811e+13 0 1.15143e+14 3.07049e+14 0 
3717 0 144.218 2.21409e+18 148.709 139.083 137.06 7476.68 -0.981579 0.154799 2.21356e+18 3.83811e+13 0 1.53525e+14 3.4543e+14 0 
3721 0 143.653 2.20542e+18 148.84 141.989 137.375 7475.16 0.972425 0.0260669 2.20446e+18 0 0 4.22193e+14 5.37336e+14 0 
3725 0 144.455 2.21774e+18 151.178 136.335 136.843 7476.67 -0.792142 0.30229 2.21716e+18 0 0 3.83811e+13 5.37336e+14 0 
3729 0 143.54 2.20369e+18 188.959 138.669 137.155 7474.83 -0.553444 1.1029 2.20173e+18 0 0 2.68668e+14 1.65039e+15 3.83811e+13 
3733 0 144.135 2.21283e+18 193.26 141.941 137.728 7473.92 0.794273 -0.842239 2.21006e+18 0 0 8.44385e+14 1.91906e+15 0 
3837 0 144.065 2.21175e+18 147.65 138.13 136.204 7477.13 0.110487 0.126286 2.2116e+18 0 0 3.83811e+13 1.15143e+14 0 
3841 0 144.613 2.22016e+18 137.058 137.808 136.736 7477.33 -0.452787 0.406794 2.22016e+18 0 0 0 0 0 
3845 0 143.97 2.21029e+18 139.125 137.917 136.901 7476.97 -0.477943 -0.659628 2.2101e+18 0 0 3.83811e+13 1.53525e+14 0 
3849 0 143.705 2.20622e+18 144.666 142.502 136.855 7476.65 -0.00429656 0.0261657 2.20584e+18 0 0 1.91906e+14 1.91906e+14 0 
3853 0 144.202 2.21386e+18 158.808 139.864 136.699 7477.21 0.988839 -0.103156 2.21298e+18 0 0 1.91906e+14 6.90861e+14 0 
3857 0 144.625 2.22035e+18 150.701 139.988 138.038 7475.89 0.388591 -0.614656 2.21958e+18 0 0 3.07049e+14 4.22193e+14 3.83811e+13 
3861 0 143.488 2.20289e+18 153.555 140.754 136.822 7476.45 0.2185 -0.604275 2.20208e+18 0 0 1.91906e+14 6.14098e+14 0 