ITEM: TIMESTEP
19000
ITEM: NUMBER OF CELLS
10393
ITEM: BOX BOUNDS oo ao pp
-10 10
0 10
-0.5 0.5
ITEM: CELLS id proc f_avg_n f_avg_nrho f_avg_temp_tra f_avg_temp_rot f_avg_temp_vib f_avg_vel[1] f_avg_vel[2] f_avg_vel[3] f_avg_nrho_CO2 f_avg_nrho_O2 f_avg_nrho_C2 f_avg_nrho_CO f_avg_nrho_O f_avg_nrho_C 
1 0 145.493 2.23368e+18 137.769 137.544 136.452 7478.83 6.13863 -0.238077 2.23368e+18 0 0 0 0 0 
5 0 153.973 2.36387e+18 139.39 137.033 136.277 7477.21 25.7246 -0.532598 2.36387e+18 0 0 0 0 0 
9 0 160.735 2.46768e+18 147.778 137.913 137.009 7476.51 33.5809 0.0992131 2.46742e+18 0 0 5.11749e+13 2.04699e+14 0 
13 0 163.733 2.51371e+18 143.815 138.626 136.283 7477.54 34.0654 -0.59878 2.5134e+18 0 0 2.55874e+13 2.81462e+14 0 
17 0 166.162 2.55099e+18 152.6 137.789 136.564 7476.97 31.9658 0.417741 2.55025e+18 2.55874e+13 0 5.11749e+13 6.65273e+14 0 
21 0 166.182 2.5513e+18 152.686 140.31 137.195 7475.78 28.122 -0.30639 2.5503e+18 0 0 3.32637e+14 6.65273e+14 0 
25 0 164.523 2.52584e+18 173.763 143.859 137.397 7475.46 22.3038 1.29249 2.52371e+18 2.55874e+13 0 4.09399e+14 1.68877e+15 0 
29 0 162.483 2.49452e+18 180.489 145.347 136.427 7474.73 17.6654 0.0670084 2.49224e+18 0 0 5.37336e+14 1.68877e+15 5.11749e+13 
33 0 159.888 2.45468e+18 244.378 157.299 138.932 7469.77 15.6133 -1.89592 2.45012e+18 0 0 1.27937e+15 2.99373e+15 2.81462e+14 
141 0 144.338 2.21595e+18 142.241 137.851 136.194 7476.62 -0.449052 -0.0863057 2.21577e+18 0 0 0 1.79112e+14 0 
145 0 143.695 2.20607e+18 141.737 137.601 136.568 7476.92 0.462203 -0.396266 2.20597e+18 0 0 0 7.67623e+13 2.55874e+13 
149 0 144.373 2.21649e+18 144.831 137.076 136.454 7476.79 -0.419682 0.173647 2.21633e+18 0 0 2.55874e+13 1.27937e+14 0 
153 0 144.972 2.22567e+18 146.212 138.866 136.442 7476.46 0.19161 1.0289 2.22521e+18 0 0 1.0235e+14 3.58224e+14 0 
157 0 144.223 2.21418e+18 166.353 141.638 136.617 7475.21 1.25161 -0.357755 2.21267e+18 0 0 3.07049e+14 1.17702e+15 2.55874e+13 
161 0 146.023 2.24182e+18 183.74 139.532 137.416 7474.95 2.9669 -0.508049 2.24026e+18 0 0 2.81462e+14 1.2282e+15 5.11749e+13 
165 0 147.372 2.26252e+18 193.938 141.619 137.95 7473.36 4.57932 -0.695204 2.26029e+18 0 0 5.37336e+14 1.50966e+15 1.79112e+14 
169 0 146.867 2.25476e+18 237.274 148.185 138.196 7470.6 5.61335 0.774593 2.24993e+18 0 0 1.12585e+15 3.60783e+15 1.0235e+14 
277 0 144.145 2.21298e+18 145.103 138.692 136.163 7478.07 -1.13893 0.277062 2.21283e+18 0 0 5.11749e+13 1.0235e+14 0 
281 0 144.148 2.21303e+18 152.212 139.146 136.066 7476.87 0.443789 -0.583629 2.21272e+18 0 0 1.0235e+14 1.79112e+14 2.55874e+13 
285 0 144.305 2.21544e+18 157.042 138.011 136.266 7476.35 -1.21613 1.63589 2.21498e+18 0 0 1.0235e+14 3.58224e+14 0 
289 0 143.35 2.20077e+18 147.616 139.113 136.541 7477.01 0.27548 0.874815 2.20031e+18 0 0 2.30287e+14 2.30287e+14 0 
293 0 144.305 2.21544e+18 144.974 138.921 136.479 7477.09 -0.515307 0.443535 2.215e+18 0 0 1.53525e+14 2.81462e+14 0 
297 0 143.968 2.21027e+18 163.719 139.765 136.27 7475.57 0.488443 -0.451571 2.20881e+18 0 0 3.07049e+14 1.15143e+15 0 
301 0 143.905 2.2093e+18 180.14 142.882 137.218 7474.85 0.925372 0.123927 2.20681e+18 0 0 5.37336e+14 1.91906e+15 2.55874e+13 
305 0 144.328 2.21579e+18 221.123 146.808 139.006 7471.44 0.665468 0.947079 2.21211e+18 0 0 1.04908e+15 2.55874e+15 7.67623e+13 
413 0 144.53 2.21889e+18 140.312 137.025 136.446 7476.26 0.179499 -0.379833 2.21884e+18 0 0 0 5.11749e+13 0 
417 0 144.895 2.22449e+18 143.439 137.228 136.68 7476.81 0.178465 0.398043 2.22431e+18 0 0 2.55874e+13 1.53525e+14 0 
421 0 144.278 2.21503e+18 142.8 137.991 136.641 7477.18 -0.174709 -0.0953908 2.21487e+18 0 0 5.11749e+13 1.0235e+14 0 
425 0 144.678 2.22117e+18 147.739 137.654 136.617 7475.65 0.118107 -0.294236 2.22076e+18 0 0 5.11749e+13 3.32637e+14 2.55874e+13 
429 0 143.818 2.20796e+18 169.481 140.821 136.768 7475.22 0.677822 -0.266127 2.20679e+18 0 0 2.81462e+14 8.9556e+14 0 
433 0 145.158 2.22854e+18 167.954 141.142 137.56 7476.52 -0.242955 0.240664 2.2271e+18 0 0 4.09399e+14 9.9791e+14 2.55874e+13 
437 0 144.695 2.22142e+18 193.537 142.131 137.685 7473.68 0.0646053 0.903597 2.21933e+18 0 0 5.11749e+14 1.56083e+15 2.55874e+13 
441 0 143.577 2.20425e+18 218.731 142.256 138.066 7472.75 -0.0578918 0.00424367 2.20113e+18 0 0 5.62923e+14 2.53316e+15 2.55874e+13 
445 0 145.055 2.22695e+18 315.968 149.361 138.574 7467.47 -0.236493 0.393159 2.21961e+18 0 0 1.73994e+15 5.45012e+15 1.53525e+14 
549 0 144.463 2.21787e+18 142.821 137.618 136.644 7477.35 -0.652166 0.26009 2.21779e+18 0 0 2.55874e+13 5.11749e+13 0 
553 0 143.793 2.20758e+18 141.023 136.499 136.359 7477.16 0.184193 0.482716 2.20738e+18 0 0 2.55874e+13 1.53525e+14 2.55874e+13 
557 0 144.285 2.21513e+18 140.525 137.572 136.421 7475.98 -0.237057 1.08783 2.21487e+18 0 0 7.67623e+13 1.79112e+14 0 
561 0 144.828 2.22347e+18 141.411 137.631 136.764 7477 0.210779 0.332343 2.22319e+18 0 0 1.0235e+14 1.53525e+14 2.55874e+13 
565 0 144.795 2.22296e+18 150.394 138.354 136.769 7476.54 0.379514 -0.743252 2.22229e+18 0 0 1.79112e+14 4.86161e+14 0 
569 0 144.405 2.21697e+18 161.416 139.369 136.543 7475.81 0.195148 -0.379408 2.21608e+18 0 0 2.30287e+14 5.88511e+14 7.67623e+13 
573 0 145.012 2.22629e+18 184.733 140.755 137.068 7474.8 1.09006 0.633552 2.22429e+18 0 0 4.09399e+14 1.58642e+15 0 
577 0 144.553 2.21925e+18 195.843 140.904 137.662 7473.88 -0.638465 -0.443609 2.21654e+18 2.55874e+13 0 4.34986e+14 2.17493e+15 7.67623e+13 
581 0 144.327 2.21577e+18 262.057 150.958 139.963 7469.53 0.533685 -0.23249 2.20968e+18 2.55874e+13 0 1.50966e+15 4.42662e+15 1.27937e+14 
689 0 144.618 2.22025e+18 140.457 137.549 137.106 7477.3 -1.01912 -0.844185 2.2202e+18 0 0 2.55874e+13 2.55874e+13 0 
693 0 144.332 2.21585e+18 147.592 138.679 136.713 7476.77 -0.0973348 1.39939 2.21559e+18 0 0 2.55874e+13 2.04699e+14 2.55874e+13 
697 0 143.757 2.20702e+18 147.621 140.224 136.304 7477.76 -0.0141542 0.240594 2.20661e+18 0 0 7.67623e+13 3.07049e+14 2.55874e+13 
701 0 143.55 2.20385e+18 164.335 137.828 137.036 7475.74 -0.375085 0.478266 2.20315e+18 0 0 7.67623e+13 6.14098e+14 0 
705 0 144.347 2.21608e+18 153.046 140.286 137.359 7475.91 -0.489538 -0.56361 2.21521e+18 0 0 2.55874e+14 5.62923e+14 5.11749e+13 
709 0 144.295 2.21528e+18 172.156 139.485 136.744 7475.68 -0.739593 0.673188 2.21385e+18 0 0 3.07049e+14 1.10026e+15 2.55874e+13 
713 0 144.462 2.21784e+18 209.899 141.733 137.948 7472.83 -0.0131162 0.00710231 2.2149e+18 0 0 5.11749e+14 2.32846e+15 1.0235e+14 
717 0 144.377 2.21654e+18 243.301 146.693 138.135 7470.54 0.329258 0.598673 2.21237e+18 2.55874e+13 0 9.72322e+14 3.09608e+15 7.67623e+13 
825 0 143.983 2.2105e+18 141.244 136.905 136.655 7477.56 0.122038 -0.505205 2.21042e+18 0 0 0 7.67623e+13 0 
829 0 144.358 2.21625e+18 143.906 137.428 136.002 7476.48 -0.833774 0.430211 2.2161e+18 0 0 2.55874e+13 1.27937e+14 0 
833 0 144.777 2.22268e+18 146.828 137.726 136.985 7477.26 -0.176492 -0.149705 2.22242e+18 0 0 0 2.55874e+14 0 
837 0 143.827 2.20809e+18 146.667 137.365 136.88 7477.6 0.146967 0.612154 2.20789e+18 0 0 2.55874e+13 1.79112e+14 0 
841 0 144.565 2.21943e+18 153.547 139.469 136.569 7476.62 -0.634443 0.0706416 2.21861e+18 0 0 1.53525e+14 6.65273e+14 0 
845 0 144.212 2.214e+18 162.027 141.527 137.378 7476.33 0.565265 0.192109 2.2129e+18 0 0 2.55874e+14 8.44385e+14 0 
849 0 144.14 2.2129e+18 201.163 141.127 136.965 7473.83 0.454497 1.16076 2.21063e+18 2.55874e+13 0 4.34986e+14 1.68877e+15 1.27937e+14 
853 0 144.195 2.21375e+18 233.985 145.165 137.836 7472.25 0.386458 0.142527 2.2095e+18 0 0 1.10026e+15 3.0449e+15 1.0235e+14 
961 0 144.787 2.22283e+18 141.673 137.206 136.294 7477.27 0.487933 -0.2271 2.22273e+18 0 0 0 7.67623e+13 2.55874e+13 
965 0 143.805 2.20776e+18 144.322 137.502 136.717 7476.64 0.743812 -0.57327 2.20753e+18 0 0 2.55874e+13 1.79112e+14 2.55874e+13 
969 0 143.9 2.20922e+18 145.841 136.77 136.903 7476.96 0.345366 -0.082792 2.20899e+18 0 0 2.55874e+13 2.04699e+14 0 
973 0 144.748 2.22224e+18 149.354 138.821 136.899 7476.36 0.102438 0.0414003 2.22186e+18 0 0 5.11749e+13 3.07049e+14 2.55874e+13 
977 0 144.635 2.2205e+18 154.421 138.556 136.843 7476.63 0.694606 -0.624842 2.21989e+18 0 0 7.67623e+13 4.86161e+14 5.11749e+13 
981 0 143.617 2.20487e+18 158.989 138.552 137.566 7475.92 -0.357341 0.431791 2.20397e+18 0 0 2.30287e+14 6.65273e+14 0 
985 0 143.952 2.21001e+18 184.002 142.175 137.323 7474.71 0.384055 0.044867 2.20817e+18 2.55874e+13 0 4.34986e+14 1.38172e+15 0 
989 0 144.893 2.22447e+18 215.246 144.571 137.985 7472.53 0.0183615 0.531019 2.22122e+18 2.55874e+13 0 7.67623e+14 2.37963e+15 7.67623e+13 
993 0 144.207 2.21393e+18 261.634 150.259 138.869 7470.19 0.41383 0.525403 2.20799e+18 7.67623e+13 0 1.56083e+15 4.19634e+15 1.0235e+14 
1097 0 144.068 2.2118e+18 143.145 137.757 136.271 7477.71 -0.545597 0.31637 2.2117e+18 0 0 0 1.0235e+14 0 
1101 0 143.692 2.20602e+18 138.327 136.325 136.719 7477.52 0.453856 0.902552 2.20597e+18 0 0 0 5.11749e+13 0 
1105 0 143.777 2.20732e+18 142.043 139.009 136.438 7476.97 0.255894 -0.0611402 2.20717e+18 0 0 2.55874e+13 1.27937e+14 0 
1109 0 143.813 2.20789e+18 144.629 137.745 136.703 7477.25 -0.0656429 0.194265 2.2075e+18 0 0 7.67623e+13 3.07049e+14 0 
1113 0 144.217 2.21408e+18 154.121 138.712 137.05 7478.26 -0.115134 0.656163 2.21354e+18 0 0 1.53525e+14 3.83811e+14 0 
1117 0 145.118 2.22792e+18 163.469 138.304 136.312 7476.78 0.554966 -0.908936 2.22705e+18 0 0 1.53525e+14 7.16448e+14 0 
1121 0 144.52 2.21874e+18 168.683 139.076 136.643 7476.56 -0.529749 -0.161598 2.21736e+18 0 0 3.32637e+14 1.04908e+15 0 
1125 0 143.985 2.21052e+18 206.831 144.307 137.616 7474.34 0.00351809 1.38789 2.20817e+18 2.55874e+13 0 4.60574e+14 1.86788e+15 0 
1129 0 145.06 2.22703e+18 251.753 146.78 138.071 7470.74 0.590638 0.00225137 2.22229e+18 5.11749e+13 0 1.12585e+15 3.53106e+15 2.55874e+13 
1237 0 144.967 2.22559e+18 142.31 137.944 136.714 7477.2 -1.80906 -0.275036 2.22549e+18 0 0 0 7.67623e+13 2.55874e+13 
1241 0 144.02 2.21106e+18 140.002 137.981 136.556 7477.14 0.0981378 -0.892268 2.21083e+18 0 0 7.67623e+13 1.53525e+14 0 
1245 0 144.792 2.22291e+18 147.413 138.408 136.284 7477.63 0.445189 0.862959 2.22263e+18 0 0 2.55874e+13 2.55874e+14 0 
1249 0 144.74 2.22211e+18 144.162 138.029 136.87 7476.22 -0.845186 0.145551 2.22186e+18 0 0 5.11749e+13 2.04699e+14 0 
1253 0 144.247 2.21454e+18 152.713 137.728 136.511 7476.11 0.40268 -0.639675 2.21393e+18 0 0 5.11749e+13 5.11749e+14 5.11749e+13 
1257 0 144.185 2.21359e+18 171.364 140.938 136.679 7475.23 0.235175 0.589281 2.21203e+18 2.55874e+13 0 4.09399e+14 1.04908e+15 7.67623e+13 
1261 0 145.3 2.23071e+18 203.275 143.732 137.49 7473.77 0.257133 0.152552 2.22831e+18 0 0 6.39686e+14 1.76553e+15 0 
1265 0 144.807 2.22314e+18 248.059 142.15 138.328 7471.71 -0.401232 0.257551 2.21922e+18 0 0 9.46735e+14 2.94255e+15 2.55874e+13 
1373 0 144.14 2.2129e+18 145.378 137.151 136.904 7477.4 -0.265632 0.617161 2.2128e+18 0 0 5.11749e+13 5.11749e+13 0 
1377 0 144.423 2.21725e+18 143.559 137.235 136.559 7476.94 0.0761761 0.426343 2.21715e+18 0 0 2.55874e+13 7.67623e+13 0 
1381 0 144.433 2.21741e+18 147.479 136.661 136.194 7476.69 -0.515334 0.234278 2.21718e+18 0 0 0 2.30287e+14 0 
1385 0 144.365 2.21636e+18 145.842 138.71 136.622 7477.49 -0.229911 0.676084 2.21602e+18 0 0 7.67623e+13 2.55874e+14 0 
1389 0 143.987 2.21055e+18 167.544 139.306 136.987 7476.28 -0.663799 0.703301 2.2095e+18 0 0 1.79112e+14 8.69972e+14 0 
1393 0 144.448 2.21764e+18 161.882 141.435 137.239 7475.87 -0.573617 0.347478 2.21641e+18 2.55874e+13 0 3.83811e+14 7.16448e+14 1.0235e+14 
1397 0 144.877 2.22421e+18 184.15 140.929 137.391 7475.13 0.0062412 1.27267 2.22214e+18 0 0 4.86161e+14 1.53525e+15 5.11749e+13 
1401 0 144.76 2.22242e+18 220.853 147.526 138.28 7472.9 0.712061 0.779808 2.21904e+18 2.55874e+13 0 8.44385e+14 2.43081e+15 7.67623e+13 
1509 0 144.635 2.2205e+18 138.083 137.788 136.071 7477.19 0.0114761 -0.51219 2.22048e+18 0 0 0 2.55874e+13 0 
1513 0 143.87 2.20876e+18 138.459 137.183 136.715 7477.62 -1.40586 0.0269495 2.20868e+18 0 0 2.55874e+13 5.11749e+13 0 
1517 0 144.573 2.21956e+18 143.06 138.084 137.016 7477.74 -0.0280687 0.502648 2.21943e+18 0 0 0 1.27937e+14 0 
1521 0 144.852 2.22383e+18 149.123 137.167 136.11 7476.81 0.217375 -0.050259 2.22344e+18 0 0 5.11749e+13 3.32637e+14 0 
1525 0 143.968 2.21027e+18 154.95 139.003 136.428 7476.71 -0.978868 0.586142 2.20958e+18 0 0 1.53525e+14 5.11749e+14 2.55874e+13 
1529 0 143.34 2.20062e+18 174.239 142.1 137.514 7475.56 -0.160767 0.394942 2.19947e+18 0 0 4.09399e+14 6.90861e+14 5.11749e+13 
1533 0 144.38 2.21659e+18 179.293 140.073 137.005 7475.56 0.958867 0.252884 2.21462e+18 0 0 4.60574e+14 1.48407e+15 2.55874e+13 
1537 0 144.64 2.22058e+18 213.726 142.603 137.654 7473.51 -0.523845 -0.0456732 2.21743e+18 2.55874e+13 0 6.14098e+14 2.45639e+15 5.11749e+13 
1541 0 144.623 2.22032e+18 283.136 151.889 139.019 7468.78 1.51776 0.454097 2.21482e+18 0 0 1.35613e+15 4.0684e+15 7.67623e+13 
1645 0 144.12 2.2126e+18 139.625 137.768 136.475 7477.69 -0.167723 -0.344243 2.21254e+18 0 0 0 5.11749e+13 0 
1649 0 143.995 2.21068e+18 141.468 137.575 136.548 7475.98 -0.0892584 0.756957 2.21057e+18 0 0 2.55874e+13 7.67623e+13 0 
1653 0 144.478 2.2181e+18 144.9 139.545 136.306 7477.29 -0.001428 -0.953464 2.21784e+18 0 0 5.11749e+13 1.79112e+14 2.55874e+13 
1657 0 144.27 2.2149e+18 144.557 139.124 136.342 7477.19 -0.341505 -0.92403 2.21462e+18 0 0 5.11749e+13 2.30287e+14 0 
1661 0 144.105 2.21237e+18 146.594 138.719 136.518 7476.14 -0.616016 0.16655 2.21196e+18 0 0 1.0235e+14 2.81462e+14 2.55874e+13 
1665 0 144.928 2.22501e+18 154.816 138.769 136.569 7477.18 0.440199 -0.717584 2.22452e+18 0 0 1.0235e+14 3.83811e+14 0 
1669 0 144.68 2.22119e+18 166.815 140.649 136.596 7475.72 -0.0299926 -0.841977 2.22009e+18 0 0 1.79112e+14 8.69972e+14 5.11749e+13 
1673 0 144.673 2.22109e+18 203.483 144.817 137.402 7473.42 1.45033 -0.41455 2.21851e+18 0 0 5.11749e+14 2.04699e+15 2.55874e+13 
1677 0 144.235 2.21436e+18 218.706 146.969 138.485 7472.69 0.879932 -1.55262 2.2108e+18 0 0 9.46735e+14 2.50757e+15 1.0235e+14 
1785 0 144.347 2.21608e+18 141.591 137.713 136.484 7476.46 0.217996 -0.455261 2.21595e+18 0 0 2.55874e+13 1.0235e+14 0 
1789 0 144.408 2.21702e+18 141.361 137.761 136.424 7476.65 0.415637 0.589091 2.21687e+18 0 0 5.11749e+13 7.67623e+13 2.55874e+13 
1793 0 144.067 2.21178e+18 143.725 136.982 136.632 7476.41 0.839664 0.312255 2.2115e+18 0 0 0 2.30287e+14 5.11749e+13 
1797 0 144.805 2.22311e+18 144.15 138.785 136.499 7476.9 0.0262254 0.261987 2.22273e+18 0 0 7.67623e+13 3.07049e+14 0 
1801 0 144.397 2.21684e+18 153.323 138.829 136.177 7476.26 0.68231 -0.00782768 2.21623e+18 0 0 5.11749e+13 5.37336e+14 2.55874e+13 
1805 0 145.27 2.23025e+18 177.353 139.766 137.396 7475.03 0.336171 0.509498 2.22882e+18 0 0 3.07049e+14 1.04908e+15 7.67623e+13 
1809 0 144.808 2.22316e+18 179.218 141.199 137.507 7474.95 -0.451382 -0.504636 2.22107e+18 0 0 5.11749e+14 1.50966e+15 7.67623e+13 
1813 0 144.342 2.216e+18 226.421 148.443 138.346 7471.46 0.647643 -0.326545 2.21206e+18 0 0 1.17702e+15 2.68668e+15 7.67623e+13 
1921 0 143.902 2.20924e+18 137.133 137.605 136.992 7476.7 -0.531195 0.00781382 2.20924e+18 0 0 0 0 0 
1925 0 144.572 2.21953e+18 139.084 137.597 136.694 7476.71 -0.71892 -0.42627 2.21948e+18 0 0 0 5.11749e+13 0 
1929 0 144.132 2.21278e+18 138.696 137.647 136.291 7475.63 -0.291026 0.233578 2.21272e+18 0 0 0 5.11749e+13 0 
1933 0 143.543 2.20374e+18 145.83 138.681 136.651 7476.8 -1.20984 0.172584 2.20349e+18 0 0 5.11749e+13 1.79112e+14 2.55874e+13 
1937 0 145.01 2.22626e+18 162.388 140.042 137.523 7475.95 0.363476 -0.0478023 2.22511e+18 0 0 3.83811e+14 6.65273e+14 1.0235e+14 
1941 0 144.202 2.21385e+18 157.176 139.081 136.369 7476 -0.553535 0.265439 2.21308e+18 2.55874e+13 0 1.79112e+14 5.37336e+14 2.55874e+13 
1945 0 144.242 2.21446e+18 183.276 142.165 137.019 7474.57 1.01631 -0.363049 2.21285e+18 0 0 2.81462e+14 1.20261e+15 1.27937e+14 
1949 0 143.847 2.2084e+18 208.692 144.221 137.637 7472.11 0.655207 -0.306404 2.20505e+18 0 0 7.42035e+14 2.58433e+15 2.55874e+13 
2057 0 144.038 2.21134e+18 137.703 137.493 136.965 7477.31 0.371111 -0.504331 2.21132e+18 0 0 0 2.55874e+13 0 
2061 0 144.102 2.21231e+18 140.438 138.252 136.761 7478.41 0.671722 -0.368153 2.21221e+18 0 0 0 1.0235e+14 0 
2065 0 144.547 2.21915e+18 141.905 137.501 136.457 7477.88 -0.51515 0.573091 2.21904e+18 0 0 0 1.0235e+14 0 
2069 0 144.365 2.21636e+18 144.647 137.958 137.46 7477.43 0.695677 0.032774 2.21605e+18 0 0 5.11749e+13 2.55874e+14 0 
2073 0 144.445 2.21759e+18 153.529 138.793 137.042 7477.63 -0.105611 -0.146722 2.21697e+18 0 0 1.79112e+14 3.83811e+14 5.11749e+13 
2077 0 144.297 2.21531e+18 167.969 140.908 137.38 7476.36 -0.56283 0.994886 2.21421e+18 0 0 3.07049e+14 7.67623e+14 2.55874e+13 
2081 0 143.772 2.20725e+18 176.439 142.614 137.755 7474.94 0.342875 0.0539517 2.20553e+18 0 0 4.34986e+14 1.25378e+15 2.55874e+13 
2085 0 143.988 2.21057e+18 197.411 143.658 137.455 7473.71 0.093059 0.448214 2.20807e+18 0 0 6.14098e+14 1.79112e+15 1.0235e+14 
2089 0 144.045 2.21144e+18 252.278 147.324 138.099 7471.31 0.919942 0.546029 2.20666e+18 2.55874e+13 0 1.04908e+15 3.659e+15 5.11749e+13 
2193 0 144.277 2.215e+18 138.261 137.922 136.715 7477.24 -0.147167 0.136769 2.21498e+18 0 0 0 2.55874e+13 0 
2197 0 144.203 2.21388e+18 141.377 137.372 136.437 7477.77 -0.108062 1.12757 2.2138e+18 0 0 0 7.67623e+13 0 
2201 0 144.038 2.21134e+18 145.6 137.278 136.278 7477.21 0.222189 0.260065 2.21114e+18 0 0 0 2.04699e+14 0 
2205 0 144.458 2.21779e+18 145.249 138.387 136.47 7477.19 -0.115219 -0.527825 2.21753e+18 0 0 2.55874e+13 2.04699e+14 2.55874e+13 
2209 0 144.072 2.21185e+18 140.748 137.737 136.385 7477.28 0.22957 1.21474 2.21167e+18 5.11749e+13 0 5.11749e+13 7.67623e+13 0 
2213 0 143.968 2.21027e+18 153.666 139.079 136.867 7476.13 0.106276 -0.407038 2.20963e+18 0 0 1.27937e+14 4.86161e+14 2.55874e+13 
2217 0 144.88 2.22426e+18 173.818 141.325 137.068 7476.2 1.05582 0.471487 2.22291e+18 0 0 2.81462e+14 1.04908e+15 2.55874e+13 
2221 0 144.963 2.22554e+18 181.757 143.696 137.202 7474.76 0.327446 1.32376 2.22306e+18 0 0 6.14098e+14 1.73994e+15 1.27937e+14 
2225 0 144.877 2.22421e+18 252.723 148.328 138.286 7470.95 0.585534 -0.304017 2.22002e+18 2.55874e+13 0 1.17702e+15 2.91697e+15 7.67623e+13 
2333 0 144.572 2.21953e+18 142.345 137.527 136.772 7477.4 0.327745 1.28295 2.21943e+18 0 0 2.55874e+13 7.67623e+13 0 
2337 0 144.093 2.21219e+18 140.976 137.336 136.177 7476.7 0.471655 -0.277518 2.21211e+18 0 0 0 7.67623e+13 0 
2341 0 144.203 2.21388e+18 139.724 137.485 137.107 7477.78 -0.328752 -0.468844 2.21375e+18 0 0 2.55874e+13 1.0235e+14 0 
2345 0 144.363 2.21633e+18 150.201 139.065 136.413 7476.34 -0.0490047 0.28042 2.21597e+18 0 0 1.0235e+14 2.55874e+14 0 
2349 0 143.948 2.20996e+18 143.548 137.423 136.726 7476.57 -0.175847 -0.671319 2.20976e+18 0 0 2.55874e+13 1.79112e+14 0 
2353 0 143.867 2.20871e+18 159.711 138.218 136.334 7476.09 0.625462 0.528695 2.20773e+18 0 0 1.79112e+14 7.42035e+14 5.11749e+13 
2357 0 144.635 2.2205e+18 170.111 142.372 136.66 7474.95 -0.186993 -0.212019 2.21879e+18 0 0 3.07049e+14 1.33055e+15 7.67623e+13 
2361 0 145.685 2.23662e+18 212.195 143.469 136.944 7473.07 0.396506 -0.198005 2.2336e+18 0 0 7.42035e+14 2.22611e+15 5.11749e+13 
2469 0 144.025 2.21114e+18 137.266 137.815 136.463 7477.62 0.206143 0.0248409 2.21114e+18 0 0 0 0 0 
2473 0 143.917 2.20947e+18 143.327 137.635 135.712 7477.26 -0.667354 -1.22142 2.20924e+18 0 0 2.55874e+13 1.79112e+14 2.55874e+13 
2477 0 144.228 2.21426e+18 146.355 138.211 136.738 7476.81 -0.536889 -0.448671 2.21411e+18 0 0 5.11749e+13 1.0235e+14 0 
2481 0 144.195 2.21375e+18 144.705 137.422 136.86 7477.34 0.521479 -0.579703 2.21334e+18 0 0 7.67623e+13 3.32637e+14 0 
2485 0 144.027 2.21116e+18 152.058 139.404 136.621 7477.07 -0.267007 0.196757 2.2106e+18 0 0 1.0235e+14 4.60574e+14 0 
2489 0 144.498 2.2184e+18 159.531 138.795 136.98 7476.26 0.325032 0.76704 2.21756e+18 0 0 1.53525e+14 6.90861e+14 0 
2493 0 144.233 2.21434e+18 172.708 140.406 137.283 7475.43 0.239682 0.5001 2.21272e+18 2.55874e+13 0 4.09399e+14 1.15143e+15 2.55874e+13 
2497 0 144.482 2.21815e+18 194.109 142.903 137.629 7473.58 -1.09949 0.470448 2.21572e+18 2.55874e+13 0 4.34986e+14 1.97023e+15 0 
2605 0 144.148 2.21303e+18 142.193 137.462 136.785 7477.55 -0.231984 0.19518 2.21275e+18 0 0 2.55874e+13 2.30287e+14 2.55874e+13 
2609 0 144.66 2.22089e+18 141.204 137.561 136.269 7476.62 -0.909674 0.538738 2.22081e+18 0 0 0 7.67623e+13 0 
2613 0 144.06 2.21167e+18 139.774 137.959 136.126 7476.7 0.611182 0.106302 2.2116e+18 0 0 0 7.67623e+13 0 
2617 0 144.045 2.21144e+18 144.284 137.038 136.788 7477.82 -0.594218 -0.259068 2.21116e+18 0 0 7.67623e+13 1.79112e+14 2.55874e+13 
2621 0 143.933 2.20973e+18 150.407 138.995 136.715 7476.66 0.158043 -0.701382 2.20924e+18 0 0 1.0235e+14 3.83811e+14 0 
2625 0 145.187 2.22897e+18 164.873 138.803 136.844 7475.55 -0.0423826 0.195783 2.22813e+18 0 0 1.79112e+14 6.39686e+14 2.55874e+13 
2629 0 144.047 2.21147e+18 182.217 139.418 137.185 7475.07 -0.190165 -0.018677 2.20988e+18 2.55874e+13 0 3.07049e+14 1.20261e+15 5.11749e+13 
2633 0 143.928 2.20965e+18 185.658 141.243 137.137 7474.6 -0.621464 -0.238141 2.20794e+18 0 0 2.55874e+14 1.4329e+15 2.55874e+13 
2637 0 144.978 2.22577e+18 228.389 147.089 138.077 7471.68 -0.0903718 -0.285292 2.22137e+18 0 0 1.10026e+15 3.22402e+15 7.67623e+13 
2741 0 144.673 2.22109e+18 140.505 138.17 136.643 7477.61 -0.546571 0.253814 2.22096e+18 0 0 2.55874e+13 1.0235e+14 0 
2745 0 144.282 2.21508e+18 137.748 136.908 137.114 7476.42 -0.539371 0.788769 2.21505e+18 0 0 0 2.55874e+13 0 
2749 0 143.772 2.20725e+18 141.294 137.094 136.378 7476.01 -0.550628 0.848271 2.20709e+18 0 0 0 1.53525e+14 0 
2753 0 143.997 2.2107e+18 142.572 138.639 136.008 7477.24 0.0332517 0.661719 2.21052e+18 0 0 0 1.79112e+14 0 
2757 0 144.922 2.2249e+18 147.851 138.438 136.825 7476.29 0.222985 0.894215 2.22452e+18 0 0 2.55874e+13 3.32637e+14 2.55874e+13 
2761 0 144.407 2.217e+18 162.584 139.536 137.03 7476.07 -0.193642 0.095143 2.21625e+18 0 0 2.30287e+14 4.60574e+14 5.11749e+13 
2765 0 143.747 2.20686e+18 161.734 139.207 136.474 7475.66 1.02521 0.458256 2.20592e+18 0 0 1.79112e+14 7.16448e+14 5.11749e+13 
2769 0 144.143 2.21295e+18 191.893 140.521 137.405 7473.94 0.240751 0.441505 2.21086e+18 0 0 4.60574e+14 1.58642e+15 5.11749e+13 
2773 0 144.78 2.22273e+18 215.895 144.05 137.551 7473.34 0.676471 0.427897 2.21945e+18 2.55874e+13 0 6.39686e+14 2.58433e+15 2.55874e+13 
2881 0 144.427 2.2173e+18 139.401 137.693 136.709 7477.82 -0.232664 0.449378 2.2172e+18 0 0 2.55874e+13 5.11749e+13 2.55874e+13 
2885 0 144.105 2.21237e+18 143.289 137.039 136.263 7476.7 -0.400327 -0.426334 2.21224e+18 0 0 2.55874e+13 1.0235e+14 0 
2889 0 144.707 2.2216e+18 140.483 137.816 136.366 7477.27 0.426509 -0.940617 2.22145e+18 0 0 2.55874e+13 1.0235e+14 2.55874e+13 
2893 0 144.253 2.21464e+18 139.825 138.394 136.216 7477.32 -0.44376 0.734943 2.21444e+18 0 0 0 1.79112e+14 2.55874e+13 
2897 0 143.785 2.20745e+18 154.433 137.202 136.276 7476.49 0.429936 -1.09306 2.20699e+18 0 0 7.67623e+13 3.83811e+14 0 
2901 0 145.002 2.22613e+18 154.348 137.204 136.864 7476.82 -0.438569 -1.40732 2.22552e+18 0 0 5.11749e+13 5.62923e+14 0 
2905 0 145.392 2.23212e+18 176.492 140.797 137.114 7475.68 -0.301193 0.715904 2.23064e+18 0 0 2.55874e+14 1.15143e+15 7.67623e+13 
2909 0 144.043 2.21142e+18 188.671 143.72 137.939 7474.25 -0.106972 -0.893465 2.20894e+18 0 0 5.88511e+14 1.81671e+15 7.67623e+13 
3017 0 144.242 2.21446e+18 138.949 137.18 136.311 7477.57 -1.10711 0.33431 2.21444e+18 0 0 0 2.55874e+13 0 
3021 0 144.662 2.22091e+18 138.888 137.869 136.792 7477.08 -1.76953 0.271699 2.22089e+18 0 0 0 2.55874e+13 0 
3025 0 143.872 2.20878e+18 144.936 137.665 136.639 7476.86 0.594244 -0.147675 2.20845e+18 0 0 5.11749e+13 2.81462e+14 0 
3029 0 144.24 2.21444e+18 146.544 137.872 136.618 7476.55 -0.881612 0.50889 2.21413e+18 0 0 2.55874e+13 2.81462e+14 0 
3033 0 143.9 2.20922e+18 153.176 138.598 137.042 7476.19 -0.882436 -0.18953 2.20863e+18 0 0 1.53525e+14 4.09399e+14 2.55874e+13 
3037 0 144.457 2.21776e+18 152.01 138.38 137.049 7475.92 0.59621 -0.355449 2.2171e+18 0 0 1.27937e+14 5.37336e+14 0 
3041 0 145.138 2.22823e+18 171.242 139.699 136.965 7475.71 -0.492957 -0.373753 2.22695e+18 2.55874e+13 0 2.30287e+14 1.0235e+15 0 
3045 0 144.47 2.21797e+18 193.024 142.212 137.42 7475.04 0.296508 -0.0363461 2.21559e+18 2.55874e+13 0 5.11749e+14 1.73994e+15 1.0235e+14 
3153 0 144.29 2.21521e+18 140.792 137.097 136.79 7477.49 0.281594 0.417753 2.21513e+18 0 0 0 7.67623e+13 0 
3157 0 144.217 2.21408e+18 145.028 137.07 136.438 7477.6 -0.577329 0.401776 2.21393e+18 0 0 0 1.53525e+14 0 
3161 0 144.033 2.21127e+18 140.23 137.945 136.453 7477.04 -0.686232 0.942351 2.21121e+18 0 0 0 2.55874e+13 2.55874e+13 
3165 0 143.913 2.20942e+18 139.665 137.64 136.556 7477.18 -1.33031 1.42965 2.20932e+18 0 0 0 1.0235e+14 0 
3169 0 144.248 2.21457e+18 148.351 138.772 136.776 7476.77 -0.164291 0.21175 2.21421e+18 0 0 2.55874e+13 3.32637e+14 0 
3173 0 144.138 2.21288e+18 155.388 140.586 136.825 7477.1 -0.250657 0.853811 2.21214e+18 2.55874e+13 0 7.67623e+13 5.88511e+14 5.11749e+13 
3177 0 143.885 2.20899e+18 165.995 140.769 136.838 7475.87 -0.986803 1.21256 2.20784e+18 5.11749e+13 0 2.30287e+14 8.69972e+14 0 
3181 0 144.315 2.21559e+18 186.741 143.035 137.825 7474.08 0.502871 0.00290542 2.21334e+18 0 0 5.11749e+14 1.68877e+15 5.11749e+13 
3185 0 144.133 2.2128e+18 209.713 145.959 138.451 7473.54 0.699143 1.0241 2.20935e+18 2.55874e+13 0 7.42035e+14 2.6355e+15 5.11749e+13 
3289 0 144.26 2.21475e+18 142.739 138.006 136.852 7477.02 -0.462835 0.987118 2.21464e+18 0 0 2.55874e+13 7.67623e+13 0 
3293 0 144.427 2.2173e+18 137.371 138.39 136.791 7477.75 0.0951987 0.907409 2.21728e+18 0 0 2.55874e+13 0 0 
3297 0 144.143 2.21295e+18 145.812 137.667 136.651 7477.49 -0.861355 -0.646234 2.21272e+18 0 0 0 2.30287e+14 0 
3301 0 143.875 2.20883e+18 143.107 137.765 136.248 7477.59 -0.0868329 0.910289 2.20866e+18 0 0 5.11749e+13 1.27937e+14 0 
3305 0 144.153 2.21311e+18 145.63 139.359 136.717 7477.62 -0.837919 0.866221 2.21288e+18 0 0 2.55874e+13 2.04699e+14 0 
3309 0 144.672 2.22107e+18 153.566 137.755 136.357 7477.74 -0.378284 -0.815667 2.22043e+18 0 0 1.0235e+14 5.37336e+14 0 
3313 0 144.272 2.21492e+18 164.876 139.355 137.027 7476.17 0.188413 0.21931 2.21395e+18 2.55874e+13 0 1.79112e+14 7.67623e+14 0 
3317 0 143.84 2.2083e+18 179.288 140.697 137.181 7474.89 -0.475398 0.83487 2.20684e+18 2.55874e+13 0 2.04699e+14 1.2282e+15 0 
3321 0 144.3 2.21536e+18 203.356 143.888 137.949 7473.62 1.31684 0.244802 2.21257e+18 2.55874e+13 0 5.88511e+14 2.12376e+15 5.11749e+13 
3429 0 143.7 2.20615e+18 136.848 137.479 136.2 7477.67 0.0778026 -0.462879 2.20615e+18 0 0 0 0 0 
3433 0 144.462 2.21784e+18 140.237 137.264 136.267 7476.09 -0.813454 1.29746 2.21779e+18 0 0 0 5.11749e+13 0 
3437 0 144.412 2.21707e+18 142.316 137.071 136.832 7477.56 -0.348309 -0.183493 2.21689e+18 0 0 2.55874e+13 1.53525e+14 0 
3441 0 143.877 2.20886e+18 141.377 139.099 136.949 7477.56 0.0120082 -0.245793 2.20863e+18 2.55874e+13 0 1.0235e+14 1.0235e+14 0 
3445 0 144.762 2.22245e+18 150.18 139.298 136.413 7476.79 -0.634229 0.169239 2.22201e+18 0 0 1.0235e+14 3.32637e+14 0 
3449 0 144.465 2.21789e+18 159.542 138.073 136.67 7477.05 -0.812904 0.0597474 2.21695e+18 0 0 2.04699e+14 7.42035e+14 0 
3453 0 143.902 2.20924e+18 164.619 138.448 136.86 7475.63 -0.0321867 -0.637358 2.20817e+18 0 0 1.53525e+14 8.69972e+14 5.11749e+13 
3457 0 144.748 2.22224e+18 183.818 141.749 137.333 7475.45 0.66015 1.64929 2.21991e+18 0 0 5.11749e+14 1.73994e+15 7.67623e+13 
3565 0 144.03 2.21121e+18 138.428 137.806 136.377 7476.77 0.875268 0.0207806 2.21119e+18 0 0 0 2.55874e+13 0 
3569 0 144.782 2.22275e+18 140.72 137.828 136.466 7477.08 -0.741985 -0.189246 2.22268e+18 0 0 0 7.67623e+13 0 
3573 0 145.093 2.22754e+18 142.033 137.995 136.866 7477.02 0.198341 -0.123767 2.22741e+18 0 0 0 1.27937e+14 0 
3577 0 144.042 2.21139e+18 144.978 137.968 136.426 7476.36 0.978486 0.26871 2.21111e+18 0 0 5.11749e+13 2.30287e+14 0 
3581 0 144.272 2.21492e+18 152.596 139.605 137.172 7476.07 -1.37059 -0.273766 2.21441e+18 2.55874e+13 0 7.67623e+13 4.09399e+14 0 
3585 0 144.145 2.21298e+18 148.976 139.062 136.822 7476.78 -0.0629861 -0.46048 2.21234e+18 0 0 1.27937e+14 5.11749e+14 0 
3589 0 144.563 2.2194e+18 159.027 140.979 137.135 7475.57 0.905842 -0.513664 2.2182e+18 5.11749e+13 0 3.58224e+14 7.9321e+14 0 
3593 0 144.475 2.21805e+18 176.375 141.279 137.407 7474.23 -0.226283 -0.636196 2.21633e+18 0 0 3.58224e+14 1.35613e+15 0 
3701 0 144.438 2.21748e+18 137.275 137.921 136.608 7477.23 0.118339 -0.170159 2.21743e+18 0 0 0 5.11749e+13 0 
3705 0 144.593 2.21986e+18 142.576 136.862 136.014 7476.92 -0.244139 -0.15563 2.21971e+18 0 0 0 1.53525e+14 0 
3709 0 144.792 2.22291e+18 145.311 138.349 136.507 7476.92 0.537374 0.2531 2.22268e+18 0 0 0 2.30287e+14 0 
3713 0 143.857 2.20855e+18 144.141 138.424 136.516 7476.17 0.0847872 0.393441 2.20817e+18 2.55874e+13 0 1.0235e+14 2.55874e+14 0 
3717 0 144.845 2.22373e+18 148.233 138.876 137.124 7476.58 -0.414151 0.208313 2.22324e+18 2.55874e+13 0 1.27937e+14 3.32637e+14 0 
3721 0 144.038 2.21134e+18 152.233 141.137 137.358 7475.49 1.17646 -0.316682 2.21034e+18 0 0 3.58224e+14 6.39686e+14 0 
3725 0 144.197 2.21377e+18 155.539 137.116 136.805 7476.92 -0.211975 -0.00711314 2.21301e+18 2.55874e+13 0 1.0235e+14 6.39686e+14 0 
3729 0 143.885 2.20899e+18 190.4 140.157 137.454 7474.31 -0.171413 0.245154 2.20681e+18 0 0 3.32637e+14 1.81671e+15 2.55874e+13 
3733 0 144.885 2.22434e+18 192.338 142.379 137.517 7474.4 0.67186 -0.412201 2.22165e+18 0 0 7.42035e+14 1.94464e+15 0 
3837 0 143.87 2.20876e+18 144.119 138.118 136.457 7477.77 -0.188784 -0.0871315 2.20866e+18 0 0 2.55874e+13 7.67623e+13 0 
3841 0 144.3 2.21536e+18 137.12 137.667 136.594 7477.44 -0.412977 -0.540131 2.21536e+18 0 0 0 0 0 
3845 0 144.183 2.21357e+18 139.016 137.879 136.806 7477.86 -0.0463936 -0.833599 2.21344e+18 0 0 2.55874e+13 1.0235e+14 0 