ITEM: TIMESTEP
16000
ITEM: NUMBER OF CELLS
10393
ITEM: BOX BOUNDS oo ao pp
-10 10
0 10
-0.5 0.5
ITEM: CELLS id proc f_avg_n f_avg_nrho f_avg_temp_tra f_avg_temp_rot f_avg_temp_vib f_avg_vel[1] f_avg_vel[2] f_avg_vel[3] f_avg_nrho_CO2 f_avg_nrho_O2 f_avg_nrho_C2 f_avg_nrho_CO f_avg_nrho_O f_avg_nrho_C 
1 0 145.58 2.23501e+18 137.811 138.682 136.84 7478.66 6.47511 0.00155004 2.23501e+18 0 0 0 0 0 
5 0 153.903 2.36279e+18 139.995 136.517 136.413 7477.36 26.2908 -0.594418 2.36279e+18 0 0 0 0 0 
9 0 161.047 2.47246e+18 148.756 136.639 136.828 7476.44 33.0875 0.255127 2.47236e+18 0 0 5.11749e+13 5.11749e+13 0 
13 0 163.93 2.51673e+18 139.643 138.894 136.762 7477.1 33.0788 -1.4933 2.51663e+18 0 0 0 1.0235e+14 0 
17 0 165.717 2.54416e+18 142.014 136.475 136.44 7477.7 31.9024 -0.458721 2.5437e+18 0 0 0 4.60574e+14 0 
21 0 166.12 2.55035e+18 152.791 140.535 137.865 7474.56 29.2427 -0.518958 2.54928e+18 0 0 5.62923e+14 5.11749e+14 0 
25 0 164.933 2.53213e+18 182.182 146.744 137.825 7475.68 23.0314 1.86483 2.52911e+18 5.11749e+13 0 7.16448e+14 2.25169e+15 0 
29 0 162.343 2.49237e+18 191.988 151.382 136.238 7473.53 17.5428 0.463901 2.48986e+18 0 0 9.21147e+14 1.53525e+15 5.11749e+13 
33 0 159.43 2.44764e+18 262.934 149.694 138.333 7468.2 17.3042 -2.74398 2.44196e+18 0 0 1.0235e+15 4.45221e+15 2.04699e+14 
141 0 144.783 2.22278e+18 146.668 137.816 136.005 7476.5 -1.34428 -0.159544 2.22242e+18 0 0 0 3.58224e+14 0 
145 0 144.103 2.21234e+18 142.739 137.917 136.199 7475.8 0.338012 -0.100031 2.21219e+18 0 0 0 1.0235e+14 5.11749e+13 
149 0 144.49 2.21828e+18 145.623 137.324 136.227 7476.99 0.0522371 0.678317 2.21807e+18 0 0 5.11749e+13 1.53525e+14 0 
153 0 144.833 2.22355e+18 151.95 139.319 136.609 7475.74 0.188522 0.977746 2.22288e+18 0 0 1.53525e+14 5.11749e+14 0 
157 0 144.8 2.22304e+18 180.736 142.111 136.889 7474.76 0.658424 0.390249 2.22084e+18 0 0 4.60574e+14 1.68877e+15 5.11749e+13 
161 0 146.203 2.24458e+18 198.782 141.034 137.525 7474.16 2.73875 0.15379 2.24264e+18 0 0 4.60574e+14 1.48407e+15 0 
165 0 146.823 2.2541e+18 201.759 142.471 138.461 7472.51 5.03133 -1.452 2.25098e+18 0 0 5.62923e+14 2.45639e+15 1.0235e+14 
169 0 147.31 2.26157e+18 250.338 147.035 138.306 7469.84 4.2023 0.390087 2.25645e+18 0 0 1.0235e+15 4.09399e+15 0 
277 0 144.12 2.2126e+18 145.926 137.643 136.555 7478.32 -0.731042 -0.179451 2.21244e+18 0 0 1.0235e+14 5.11749e+13 0 
281 0 144.483 2.21817e+18 156.172 138.961 136.105 7477.06 -0.674005 -1.89792 2.21782e+18 0 0 1.53525e+14 1.53525e+14 5.11749e+13 
285 0 144.6 2.21997e+18 166.376 137.593 135.987 7475.89 -1.54549 3.23714 2.2194e+18 0 0 1.53525e+14 4.09399e+14 0 
289 0 143.497 2.20303e+18 152.921 140.459 136.937 7476.35 0.883604 -0.159204 2.20226e+18 0 0 4.60574e+14 3.07049e+14 0 
293 0 144.593 2.21986e+18 149.737 140.375 136.868 7477.21 -1.31044 0.0600394 2.2192e+18 0 0 2.04699e+14 4.60574e+14 0 
297 0 143.967 2.21024e+18 172.044 139.496 135.881 7475.71 0.464126 0.740447 2.2083e+18 0 0 2.55874e+14 1.68877e+15 0 
301 0 145.11 2.22779e+18 192.356 142.306 137.18 7474.18 0.65749 0.0131814 2.22534e+18 0 0 4.09399e+14 2.04699e+15 0 
305 0 144.25 2.21459e+18 234.576 146.959 138.581 7470.89 0.0126507 1.13115 2.21116e+18 0 0 8.18798e+14 2.60992e+15 0 
413 0 144.403 2.21695e+18 143.026 136.848 136.318 7477.09 -0.337756 -0.634586 2.21684e+18 0 0 0 1.0235e+14 0 
417 0 144.907 2.22467e+18 139.493 137.635 136.927 7477.18 -0.0691624 0.960517 2.22462e+18 0 0 0 5.11749e+13 0 
421 0 144.14 2.2129e+18 141.149 137.889 136.607 7476.88 -0.0187646 0.224416 2.21275e+18 0 0 0 1.53525e+14 0 
425 0 143.687 2.20594e+18 148.272 138.027 137.029 7475.87 -0.503854 -0.207672 2.20548e+18 0 0 5.11749e+13 3.58224e+14 5.11749e+13 
429 0 143.777 2.20732e+18 183.95 140.823 136.436 7475.66 0.0985749 -0.762754 2.20569e+18 0 0 3.58224e+14 1.27937e+15 0 
433 0 145.993 2.24136e+18 170.61 140.208 136.725 7476.52 0.368158 0.082463 2.24018e+18 0 0 3.58224e+14 8.18798e+14 0 
437 0 144.673 2.22109e+18 199.595 141.098 137.636 7473.77 -0.00356147 0.42 2.21904e+18 0 0 4.09399e+14 1.6376e+15 0 
441 0 143.577 2.20425e+18 219.726 142.774 136.894 7473.62 0.679477 1.134 2.20113e+18 0 0 4.60574e+14 2.66109e+15 0 
445 0 145.353 2.23153e+18 300.118 150.812 138.364 7467.88 0.107984 0.0249995 2.22483e+18 0 0 1.53525e+15 5.01514e+15 1.53525e+14 
549 0 144.393 2.21679e+18 147.841 137.747 136.487 7477.06 -0.589419 -0.220265 2.21664e+18 0 0 5.11749e+13 1.0235e+14 0 
553 0 143.41 2.2017e+18 144.616 137.245 136.337 7476.45 -0.0297945 0.13816 2.20129e+18 0 0 5.11749e+13 3.07049e+14 5.11749e+13 
557 0 144.29 2.21521e+18 142.946 138.499 136.397 7477.24 0.586578 1.01187 2.2148e+18 0 0 1.53525e+14 2.55874e+14 0 
561 0 144.247 2.21454e+18 141.461 137.554 136.503 7477.47 0.211393 -0.100264 2.21423e+18 0 0 0 2.55874e+14 5.11749e+13 
565 0 144.57 2.2195e+18 154.368 139.057 136.54 7475.61 0.696776 -0.573134 2.21884e+18 0 0 1.0235e+14 5.62923e+14 0 
569 0 144.447 2.21761e+18 153.442 141.232 136.31 7476.51 0.445031 0.38065 2.21689e+18 0 0 3.07049e+14 4.09399e+14 0 
573 0 145.16 2.22856e+18 184.362 142.26 137.164 7475.06 1.69823 0.771631 2.22646e+18 0 0 5.11749e+14 1.58642e+15 0 
577 0 144.28 2.21505e+18 190.654 141.898 138.566 7473.88 -0.618591 -0.237342 2.2126e+18 5.11749e+13 0 4.09399e+14 1.89347e+15 1.0235e+14 
581 0 144.597 2.21991e+18 268.28 153.192 139.454 7468.87 1.52855 0.0807216 2.21454e+18 0 0 1.27937e+15 3.94046e+15 1.53525e+14 
689 0 144.62 2.22027e+18 143.346 137.927 137.271 7477.89 -1.30712 -0.354892 2.22017e+18 0 0 5.11749e+13 5.11749e+13 0 
693 0 144.83 2.2235e+18 153.137 138.261 136.421 7477.64 0.43043 2.29368 2.22314e+18 0 0 0 3.58224e+14 0 
697 0 143.35 2.20077e+18 154.552 141.418 136.272 7477.05 0.995697 0.13252 2.20037e+18 0 0 0 3.58224e+14 5.11749e+13 
701 0 143.757 2.20702e+18 159.726 139.563 137.497 7475.45 -0.104536 0.0694657 2.20645e+18 0 0 1.53525e+14 4.09399e+14 0 
705 0 143.427 2.20195e+18 144.077 141.616 137.542 7476.74 -0.280926 0.120419 2.20124e+18 0 0 2.55874e+14 4.09399e+14 5.11749e+13 
709 0 144.513 2.21863e+18 167.072 139.234 136.527 7477.21 -0.471856 0.751477 2.2172e+18 0 0 2.55874e+14 1.17702e+15 0 
713 0 145.207 2.22928e+18 217.263 142.038 138.994 7472.45 0.828764 -0.57875 2.22636e+18 0 0 5.11749e+14 2.25169e+15 1.53525e+14 
717 0 144.093 2.21219e+18 241.293 146.368 137.849 7470.31 -0.0593254 0.280807 2.20814e+18 5.11749e+13 0 1.0235e+15 2.86579e+15 1.0235e+14 
825 0 143.657 2.20548e+18 144.481 136.814 136.71 7476.56 -0.925083 -0.522958 2.20533e+18 0 0 0 1.53525e+14 0 
829 0 144.147 2.21301e+18 142.256 137.752 135.646 7475.91 -1.44274 0.29147 2.21285e+18 0 0 5.11749e+13 1.0235e+14 0 
833 0 144.613 2.22017e+18 148.384 137.241 136.944 7477.07 -0.675761 -0.0473341 2.21981e+18 0 0 0 3.58224e+14 0 
837 0 144.013 2.21096e+18 145.763 136.703 137.01 7477.16 0.948572 0.534548 2.21086e+18 0 0 0 1.0235e+14 0 
841 0 144.193 2.21372e+18 151.265 139.011 136.086 7477.38 -0.343094 -0.178914 2.21326e+18 0 0 0 4.60574e+14 0 
845 0 143.537 2.20364e+18 162.248 140.387 137.122 7476.14 1.46058 0.554553 2.20262e+18 0 0 1.0235e+14 9.21147e+14 0 
849 0 145.203 2.22923e+18 214.7 143.609 137.259 7473 0.698428 1.651 2.22636e+18 5.11749e+13 0 5.11749e+14 2.04699e+15 2.55874e+14 
853 0 144.4 2.21689e+18 242.736 142.682 136.956 7473.15 1.04528 0.256517 2.2126e+18 0 0 1.07467e+15 3.07049e+15 1.53525e+14 
961 0 144.803 2.22309e+18 140.791 137.372 136.742 7476.42 0.631763 0.372459 2.22298e+18 0 0 0 5.11749e+13 5.11749e+13 
965 0 143.037 2.19596e+18 147.348 136.795 136.757 7476.37 0.418909 -0.765567 2.19561e+18 0 0 0 3.07049e+14 5.11749e+13 
969 0 143.823 2.20804e+18 154.464 136.483 137.166 7476.31 0.270426 -0.185395 2.20763e+18 0 0 5.11749e+13 3.58224e+14 0 
973 0 144.66 2.22089e+18 157.882 139.45 137.848 7477.02 0.380929 -0.0105241 2.22032e+18 0 0 0 5.11749e+14 5.11749e+13 
977 0 145.267 2.2302e+18 155.49 138.581 137.333 7477.81 0.334178 -0.111076 2.22959e+18 0 0 5.11749e+13 4.60574e+14 1.0235e+14 
981 0 143.973 2.21034e+18 163.588 138.481 137.201 7475.09 -0.574855 0.495266 2.20922e+18 0 0 3.07049e+14 8.18798e+14 0 
985 0 144.863 2.22401e+18 199.567 144.951 137.235 7474.48 -0.360596 -0.29805 2.22145e+18 0 0 5.11749e+14 2.04699e+15 0 
989 0 144.993 2.226e+18 228.89 147.162 138.615 7472.09 -0.399331 0.256441 2.22222e+18 5.11749e+13 0 7.67623e+14 2.86579e+15 1.0235e+14 
993 0 144.503 2.21848e+18 281.027 150.8 139.524 7469.33 0.0255153 -0.636992 2.21214e+18 1.0235e+14 0 1.58642e+15 4.55456e+15 1.0235e+14 
1097 0 143.73 2.20661e+18 146.58 137.681 136.483 7478.05 -0.649095 1.0441 2.20645e+18 0 0 0 1.53525e+14 0 
1101 0 143.66 2.20553e+18 136.93 135.723 136.683 7477.01 0.68862 0.991908 2.20553e+18 0 0 0 0 0 
1105 0 144.68 2.22119e+18 142.633 140.363 136.486 7477.26 -0.285424 -0.0669797 2.22104e+18 0 0 0 1.53525e+14 0 
1109 0 143.547 2.20379e+18 142.884 138.077 136.744 7477.28 -0.20009 0.0740552 2.20344e+18 0 0 1.0235e+14 2.55874e+14 0 
1113 0 144.68 2.22119e+18 163.136 139.593 136.978 7477.32 -0.929147 -0.230745 2.22043e+18 0 0 2.55874e+14 5.11749e+14 0 
1117 0 145.55 2.23455e+18 163.287 138.628 136.7 7476.96 -0.224702 -0.756474 2.23373e+18 0 0 1.53525e+14 6.65273e+14 0 
1121 0 144.57 2.2195e+18 165.295 140.276 136.983 7476.82 -0.810129 0.277601 2.21802e+18 0 0 4.09399e+14 1.07467e+15 0 
1125 0 143.86 2.2086e+18 203.613 143.108 137.482 7474.1 -0.377217 1.25933 2.20656e+18 0 0 3.58224e+14 1.68877e+15 0 
1129 0 145.52 2.23409e+18 242.721 144.741 138.435 7470.99 1.43597 -0.0528903 2.22943e+18 1.0235e+14 0 8.69972e+14 3.63341e+15 5.11749e+13 
1237 0 145.02 2.22641e+18 144.348 137.721 136.672 7478.14 -2.37294 0.182937 2.22626e+18 0 0 0 1.0235e+14 5.11749e+13 
1241 0 143.54 2.20369e+18 138.648 138.807 136.106 7476.78 -0.0822675 -0.853443 2.20344e+18 0 0 1.0235e+14 1.53525e+14 0 
1245 0 144.123 2.21265e+18 152.556 138.671 136.096 7476.43 -0.119221 1.08183 2.21224e+18 0 0 5.11749e+13 3.58224e+14 0 
1249 0 144.48 2.21812e+18 145.029 137.101 136.922 7476.78 -1.36962 0.558932 2.21771e+18 0 0 0 4.09399e+14 0 
1253 0 144.063 2.21173e+18 161.715 137.605 136.288 7475.85 0.630274 -0.318039 2.2108e+18 0 0 5.11749e+13 8.18798e+14 5.11749e+13 
1257 0 143.907 2.20932e+18 172.815 141.825 135.467 7474.66 0.183529 0.0561686 2.20753e+18 0 0 5.11749e+14 1.17702e+15 1.0235e+14 
1261 0 144.63 2.22043e+18 198.586 147.076 137.734 7474.18 0.17634 0.0695855 2.21782e+18 0 0 8.69972e+14 1.73994e+15 0 
1265 0 143.747 2.20686e+18 240.084 141.897 138.388 7471.71 0.386392 -0.249822 2.20287e+18 0 0 8.69972e+14 3.07049e+15 5.11749e+13 
1373 0 144.043 2.21142e+18 140.516 136.024 136.932 7476.51 -0.832651 0.310186 2.21137e+18 0 0 0 5.11749e+13 0 
1377 0 143.91 2.20937e+18 143.339 136.61 136.388 7477.68 0.792347 -0.104608 2.20927e+18 0 0 0 1.0235e+14 0 
1381 0 144.64 2.22058e+18 150.17 136.764 136.019 7475.54 -0.0326125 0.774375 2.22027e+18 0 0 0 3.07049e+14 0 
1385 0 144.423 2.21725e+18 148.864 139.064 137.007 7476.92 0.719795 0.957437 2.21674e+18 0 0 1.53525e+14 3.58224e+14 0 
1389 0 143.937 2.20978e+18 168.929 140.052 136.987 7476.64 -0.206234 0.431577 2.2085e+18 0 0 2.55874e+14 1.0235e+15 0 
1393 0 144.433 2.21741e+18 152.114 141.806 137.46 7475.87 -0.0510251 -0.120121 2.21654e+18 5.11749e+13 0 3.07049e+14 4.60574e+14 5.11749e+13 
1397 0 145.543 2.23445e+18 179.649 140.813 137.413 7476.02 0.017257 1.92702 2.23281e+18 0 0 4.09399e+14 1.12585e+15 1.0235e+14 
1401 0 144.83 2.2235e+18 215.718 142.168 137.407 7473.57 0.0974328 1.00643 2.22048e+18 5.11749e+13 0 5.62923e+14 2.30287e+15 1.0235e+14 
1509 0 144.747 2.22222e+18 138.937 137.49 135.894 7476.97 -0.466611 -0.69041 2.22217e+18 0 0 0 5.11749e+13 0 
1513 0 143.707 2.20625e+18 137.391 136.813 136.568 7478.27 -2.06373 -0.568717 2.20625e+18 0 0 0 0 0 
1517 0 144.263 2.2148e+18 144.401 137.562 137.258 7476.95 0.141889 -0.0743301 2.21464e+18 0 0 0 1.53525e+14 0 
1521 0 144.86 2.22396e+18 148.213 137.227 136.033 7476.85 0.324994 -0.323773 2.22365e+18 0 0 5.11749e+13 2.55874e+14 0 
1525 0 143.353 2.20083e+18 159.743 137.761 136.22 7477.62 -1.81223 0.354853 2.20011e+18 0 0 5.11749e+13 6.14098e+14 5.11749e+13 
1529 0 143.157 2.19781e+18 185.492 142.633 137.604 7474.74 -1.35486 0.292871 2.19658e+18 0 0 4.60574e+14 7.67623e+14 0 
1533 0 144.327 2.21577e+18 183.585 140.971 136.568 7475.04 0.611016 -0.00505088 2.21372e+18 0 0 4.60574e+14 1.58642e+15 0 
1537 0 144.657 2.22084e+18 215.572 142.93 137.77 7474.35 -1.08813 0.325402 2.21776e+18 0 0 7.16448e+14 2.35404e+15 0 
1541 0 144.697 2.22145e+18 271.902 152.997 138.122 7469.31 1.09383 0.408495 2.21633e+18 0 0 1.38172e+15 3.63341e+15 1.0235e+14 
1645 0 144.203 2.21388e+18 142.067 138.174 136.389 7477.11 -0.449082 -0.200161 2.21377e+18 0 0 0 1.0235e+14 0 
1649 0 143.777 2.20732e+18 145.997 136.972 136.649 7476.81 -0.76747 -0.158008 2.20712e+18 0 0 5.11749e+13 1.53525e+14 0 
1653 0 144.87 2.22411e+18 149.859 138.744 136.55 7476.71 0.49939 -0.574015 2.2238e+18 0 0 0 2.55874e+14 5.11749e+13 
1657 0 144.2 2.21382e+18 142.852 139.039 136.394 7477.32 -0.477728 -0.435507 2.21362e+18 0 0 5.11749e+13 1.53525e+14 0 
1661 0 143.873 2.20881e+18 148.648 138.394 136.246 7475.81 0.0664669 -0.209355 2.2083e+18 0 0 1.53525e+14 3.07049e+14 5.11749e+13 
1665 0 144.487 2.21823e+18 153.786 137.937 136.071 7476.9 0.33472 -0.332681 2.21782e+18 0 0 5.11749e+13 3.58224e+14 0 
1669 0 144.703 2.22155e+18 166.501 142.418 137.139 7475.72 -0.652551 -1.61159 2.22037e+18 0 0 2.04699e+14 9.21147e+14 5.11749e+13 
1673 0 144.343 2.21602e+18 200.871 143.631 137.649 7473.49 1.35459 -1.29136 2.21352e+18 0 0 5.11749e+14 1.94464e+15 5.11749e+13 
1677 0 144.44 2.21751e+18 224.502 146.05 138.914 7472.52 1.20834 -1.27576 2.21367e+18 0 0 1.12585e+15 2.60992e+15 1.0235e+14 
1785 0 144.127 2.2127e+18 143.248 137.89 136.202 7475.97 0.943376 -0.630275 2.21254e+18 0 0 5.11749e+13 1.0235e+14 0 
1789 0 144.38 2.21659e+18 144.406 137.44 136.428 7476.84 1.69346 0.484298 2.21643e+18 0 0 0 1.0235e+14 5.11749e+13 
1793 0 143.87 2.20876e+18 142.663 137.491 136.608 7476.37 -0.0447837 1.08736 2.20845e+18 0 0 0 2.04699e+14 1.0235e+14 
1797 0 145.017 2.22636e+18 142.033 137.72 136.474 7476.64 -0.0209886 0.309797 2.22595e+18 0 0 1.0235e+14 3.07049e+14 0 
1801 0 144.79 2.22288e+18 151.33 138.632 136.035 7475.52 1.31347 1.07367 2.22217e+18 0 0 1.0235e+14 5.62923e+14 5.11749e+13 
1805 0 145.85 2.23916e+18 178.711 141.376 136.84 7475.92 0.0487808 0.883299 2.23772e+18 0 0 3.58224e+14 1.07467e+15 0 
1809 0 145.183 2.22892e+18 171.781 141.415 138.188 7475.66 -0.159614 -0.881006 2.22718e+18 0 0 5.11749e+14 1.17702e+15 5.11749e+13 
1813 0 144.937 2.22513e+18 235.433 145.398 137.195 7471.05 0.345541 -0.101923 2.22165e+18 0 0 1.0235e+15 2.35404e+15 1.0235e+14 
1921 0 143.74 2.20676e+18 136.88 137.092 137.184 7476.67 -0.546985 -0.133111 2.20676e+18 0 0 0 0 0 
1925 0 144.6 2.21997e+18 140.224 137.675 136.536 7476.99 -0.738841 -0.254857 2.21986e+18 0 0 0 1.0235e+14 0 
1929 0 144 2.21075e+18 137.64 136.935 136.101 7475.97 -0.729168 0.302087 2.21075e+18 0 0 0 0 0 
1933 0 143.99 2.2106e+18 144.114 138.522 136.745 7476.71 -1.83853 0.822099 2.21034e+18 0 0 5.11749e+13 2.04699e+14 0 
1937 0 144.877 2.22421e+18 173.365 141.183 137.3 7475.98 0.0677456 0.398019 2.22288e+18 0 0 5.11749e+14 7.67623e+14 5.11749e+13 
1941 0 144.243 2.21449e+18 159.632 138.861 136.037 7476.16 -0.884408 0.0250554 2.21377e+18 0 0 1.53525e+14 5.62923e+14 0 
1945 0 144.21 2.21398e+18 177.05 142.059 137.079 7474.87 1.78641 -0.166797 2.21239e+18 0 0 3.58224e+14 1.17702e+15 5.11749e+13 
1949 0 143.49 2.20292e+18 223.675 146.239 137.868 7471.3 0.716595 0.125325 2.19852e+18 0 0 1.0235e+15 3.32637e+15 5.11749e+13 
2057 0 144.21 2.21398e+18 138.072 138.21 137.323 7476.86 0.426318 -0.957126 2.21393e+18 0 0 0 5.11749e+13 0 
2061 0 144.25 2.21459e+18 139.774 137.942 136.56 7478.18 0.49495 -0.361817 2.21454e+18 0 0 0 5.11749e+13 0 
2065 0 144.983 2.22585e+18 142.742 138.393 136.517 7478.44 0.290738 0.945297 2.2258e+18 0 0 0 5.11749e+13 0 
2069 0 144.327 2.21577e+18 142.153 137.494 137.094 7477.78 0.317757 1.0545 2.21541e+18 0 0 5.11749e+13 3.07049e+14 0 
2073 0 144.313 2.21556e+18 153.356 137.985 137.542 7477.71 0.480836 -0.486769 2.2148e+18 0 0 2.04699e+14 4.60574e+14 1.0235e+14 
2077 0 144.893 2.22447e+18 159.169 140.904 137.732 7476.42 -0.916899 1.78906 2.2236e+18 0 0 2.55874e+14 6.14098e+14 0 
2081 0 144.273 2.21495e+18 177.08 140.215 137.719 7474.98 0.476211 0.589447 2.21295e+18 0 0 4.60574e+14 1.48407e+15 5.11749e+13 
2085 0 144.167 2.21331e+18 206.645 143.118 137.802 7473.18 0.46164 0.974174 2.21019e+18 0 0 8.69972e+14 2.14934e+15 1.0235e+14 
2089 0 144.513 2.21863e+18 268.778 146.026 138.073 7470.66 0.62269 1.15791 2.21357e+18 5.11749e+13 0 1.07467e+15 3.88929e+15 5.11749e+13 
2193 0 144.29 2.21521e+18 139.637 138.412 136.796 7477.04 -0.211201 0.809087 2.21515e+18 0 0 0 5.11749e+13 0 
2197 0 144.413 2.2171e+18 146.043 137.328 136.741 7476.61 -0.399126 0.44628 2.21695e+18 0 0 0 1.53525e+14 0 
2201 0 143.737 2.20671e+18 149.879 136.788 136.453 7477.5 -0.364483 0.308847 2.20635e+18 0 0 0 3.58224e+14 0 
2205 0 144.203 2.21388e+18 151.907 138.229 136.127 7476.97 -0.665515 0.582227 2.21347e+18 0 0 5.11749e+13 3.07049e+14 5.11749e+13 
2209 0 144.517 2.21869e+18 140.044 137.894 136.408 7476.12 0.214641 1.31411 2.21853e+18 0 0 1.0235e+14 5.11749e+13 0 
2213 0 143.653 2.20543e+18 157.875 138.825 137.544 7475.5 0.560213 -0.713223 2.20482e+18 0 0 1.53525e+14 4.60574e+14 0 
2217 0 144.977 2.22575e+18 175.411 138.476 136.691 7476.32 1.42016 1.9156 2.22447e+18 0 0 2.04699e+14 1.0235e+15 5.11749e+13 
2221 0 145.42 2.23255e+18 187.358 140.82 137.472 7474.8 0.389617 0.68554 2.22974e+18 0 0 6.65273e+14 1.94464e+15 2.04699e+14 
2225 0 144.907 2.22467e+18 240.765 142.569 137.188 7471.95 0.49342 -0.244275 2.22104e+18 5.11749e+13 0 5.62923e+14 2.91697e+15 1.0235e+14 
2333 0 144.277 2.215e+18 145.385 137.397 136.586 7477.51 -0.31402 1.95383 2.21485e+18 0 0 5.11749e+13 1.0235e+14 0 
2337 0 144.167 2.21331e+18 144.384 137.428 136.255 7476.07 -0.00220043 -0.784221 2.21316e+18 0 0 0 1.53525e+14 0 
2341 0 144.15 2.21306e+18 137.739 137.848 137.171 7477.79 -0.447006 -1.20738 2.21295e+18 0 0 5.11749e+13 5.11749e+13 0 
2345 0 144.097 2.21224e+18 150.822 139.748 136.81 7475.76 -0.13121 1.08952 2.21188e+18 0 0 1.0235e+14 2.55874e+14 0 
2349 0 143.803 2.20773e+18 141.739 136.685 137.091 7476.42 -0.294194 -0.884976 2.20753e+18 0 0 5.11749e+13 1.53525e+14 0 
2353 0 144.15 2.21306e+18 164.713 138.572 136.405 7475.66 1.28852 0.284591 2.21188e+18 0 0 2.04699e+14 9.21147e+14 5.11749e+13 
2357 0 144.123 2.21265e+18 177.206 140.06 136.77 7473.95 -0.443776 -0.00455565 2.2106e+18 0 0 3.58224e+14 1.58642e+15 1.0235e+14 
2361 0 145.943 2.24059e+18 215.832 142.416 137.409 7472.38 -0.0209277 0.245963 2.23742e+18 0 0 8.18798e+14 2.25169e+15 1.0235e+14 
2469 0 144.183 2.21357e+18 137.665 137.989 136.791 7476.97 0.349194 -0.0335019 2.21357e+18 0 0 0 0 0 
2473 0 144.313 2.21556e+18 146.144 137.096 135.625 7477.34 -0.51561 -1.15442 2.21531e+18 0 0 0 2.04699e+14 5.11749e+13 
2477 0 144.827 2.22344e+18 150.089 138.562 136.967 7476.39 -0.0234826 -0.580859 2.22324e+18 0 0 1.0235e+14 1.0235e+14 0 
2481 0 144.28 2.21505e+18 149.764 138.302 136.951 7476.81 0.671967 -1.52998 2.21444e+18 0 0 1.0235e+14 5.11749e+14 0 
2485 0 143.763 2.20712e+18 148.484 138.531 136.199 7477.46 -0.551923 -0.707851 2.20681e+18 0 0 5.11749e+13 2.55874e+14 0 
2489 0 144.5 2.21843e+18 165.809 137.478 136.787 7476 -0.047966 1.61592 2.21761e+18 0 0 5.11749e+13 7.67623e+14 0 
2493 0 144.617 2.22022e+18 168.485 139.558 137.058 7475.92 -0.229872 1.20986 2.21884e+18 0 0 3.58224e+14 1.0235e+15 0 
2497 0 144.303 2.21541e+18 196.774 141.522 136.848 7472.93 -0.406761 -0.270606 2.21244e+18 0 0 6.65273e+14 2.30287e+15 0 
2605 0 144.627 2.22037e+18 144.865 138.067 136.696 7476.83 -1.1422 0.55535 2.21997e+18 0 0 0 3.58224e+14 5.11749e+13 
2609 0 144.397 2.21684e+18 142.661 137.201 135.625 7475.96 -0.532487 1.02322 2.21674e+18 0 0 0 1.0235e+14 0 
2613 0 143.36 2.20093e+18 142.614 138.31 136.593 7476.65 0.700241 1.1177 2.20077e+18 0 0 0 1.53525e+14 0 
2617 0 143.717 2.2064e+18 146.444 137.456 136.463 7478.05 -0.603768 -0.430919 2.2061e+18 0 0 1.0235e+14 2.04699e+14 0 
2621 0 143.737 2.20671e+18 145.818 138.156 136.388 7476.37 0.256728 -0.306346 2.20615e+18 0 0 1.0235e+14 4.60574e+14 0 
2625 0 144.713 2.22171e+18 167.17 137.543 136.641 7475.16 0.28731 1.46598 2.22089e+18 0 0 1.53525e+14 6.65273e+14 0 
2629 0 143.82 2.20799e+18 181.3 139.563 137.266 7475.02 -0.635708 -0.131066 2.2064e+18 5.11749e+13 0 3.07049e+14 1.17702e+15 5.11749e+13 
2633 0 144.503 2.21848e+18 184.135 139.774 136.736 7475.23 -0.270286 -0.597325 2.21659e+18 0 0 3.07049e+14 1.58642e+15 0 
2637 0 144.607 2.22007e+18 223.64 149.576 137.309 7471.42 -0.502014 0.192551 2.21546e+18 0 0 1.12585e+15 3.37754e+15 1.0235e+14 
2741 0 144.96 2.22549e+18 144.285 138.611 136.793 7476.46 -0.794618 0.289725 2.22524e+18 0 0 5.11749e+13 2.04699e+14 0 
2745 0 144.587 2.21976e+18 137.68 137.086 137.49 7476.18 -0.633041 0.313793 2.21971e+18 0 0 0 5.11749e+13 0 
2749 0 143.633 2.20512e+18 142.888 137.452 135.88 7475.95 -0.711737 0.854628 2.20492e+18 0 0 0 2.04699e+14 0 
2753 0 144.537 2.21899e+18 143.792 139.109 136.19 7476.77 0.0821463 0.952479 2.21879e+18 0 0 0 2.04699e+14 0 
2757 0 145.303 2.23076e+18 146.396 138.523 137.118 7476.31 0.0980406 1.41714 2.23035e+18 0 0 0 4.09399e+14 0 
2761 0 143.727 2.20656e+18 157.629 138.84 136.909 7475.65 -0.459339 1.12889 2.20594e+18 0 0 2.55874e+14 3.58224e+14 0 
2765 0 144.333 2.21587e+18 167.119 139.866 136.929 7474.23 1.39697 -0.181557 2.21459e+18 0 0 2.04699e+14 9.72322e+14 1.0235e+14 
2769 0 143.717 2.2064e+18 195.143 141.146 137.343 7474.48 0.519362 1.08459 2.20415e+18 0 0 6.14098e+14 1.53525e+15 1.0235e+14 
2773 0 145.397 2.2322e+18 216.295 144.139 137.523 7473.05 0.47334 1.49764 2.22913e+18 5.11749e+13 0 6.65273e+14 2.35404e+15 0 
2881 0 144.43 2.21736e+18 142.282 138.153 136.772 7478.26 0.294428 0.415285 2.21715e+18 0 0 5.11749e+13 1.0235e+14 5.11749e+13 
2885 0 144.147 2.21301e+18 145.367 136.926 135.98 7477.33 0.486378 -0.329495 2.21285e+18 0 0 5.11749e+13 1.0235e+14 0 
2889 0 144.543 2.2191e+18 140.619 137.371 136.289 7476.7 0.434389 -1.20383 2.21904e+18 0 0 0 5.11749e+13 0 
2893 0 144.577 2.21961e+18 142.64 139.247 136.296 7477.25 -0.948654 0.0536346 2.21925e+18 0 0 0 3.07049e+14 5.11749e+13 
2897 0 144.027 2.21116e+18 150.776 137.46 136.235 7476.64 0.254345 -1.7703 2.21075e+18 0 0 1.0235e+14 3.07049e+14 0 
2901 0 144.437 2.21746e+18 153.39 136.846 136.709 7476.83 -0.455044 -1.40821 2.21679e+18 0 0 5.11749e+13 6.14098e+14 0 
2905 0 145.17 2.22872e+18 176.779 142.843 136.559 7475.06 0.605145 -0.175572 2.22703e+18 0 0 2.55874e+14 1.33055e+15 1.0235e+14 
2909 0 143.26 2.19939e+18 188.805 144.055 138.661 7473.94 -0.912365 -0.112329 2.19694e+18 0 0 5.11749e+14 1.79112e+15 1.53525e+14 
3017 0 144.433 2.21741e+18 139.711 136.793 135.999 7478.3 -0.885808 0.381196 2.21736e+18 0 0 0 5.11749e+13 0 
3021 0 144.077 2.21193e+18 137.591 138.621 136.516 7477.52 -2.23033 -0.135558 2.21193e+18 0 0 0 0 0 
3025 0 144.313 2.21556e+18 142.155 137.486 136.676 7476.75 0.87484 -0.930058 2.21531e+18 0 0 5.11749e+13 2.04699e+14 0 
3029 0 145.03 2.22657e+18 146.482 137.895 136.288 7476.72 -0.511536 1.45893 2.22616e+18 0 0 5.11749e+13 3.58224e+14 0 
3033 0 144.64 2.22058e+18 156.454 138.934 136.714 7476.5 -1.61046 -0.398899 2.21997e+18 0 0 1.0235e+14 4.60574e+14 5.11749e+13 
3037 0 144.983 2.22585e+18 148.913 136.741 136.837 7476.36 0.46466 -0.521534 2.22534e+18 0 0 0 5.11749e+14 0 
3041 0 145.647 2.23603e+18 179.362 140.146 137.116 7474.87 -0.365852 0.130286 2.23465e+18 5.11749e+13 0 2.55874e+14 1.07467e+15 0 
3045 0 144.63 2.22043e+18 198.283 141.25 137.388 7474.21 0.635019 0.424006 2.21792e+18 0 0 5.11749e+14 1.94464e+15 5.11749e+13 
3153 0 144.087 2.21208e+18 138.368 137.033 136.986 7478.75 0.703932 0.428743 2.21208e+18 0 0 0 0 0 
3157 0 144.137 2.21285e+18 145.88 137.526 136.349 7477.82 0.306733 0.261565 2.2127e+18 0 0 0 1.53525e+14 0 
3161 0 144.15 2.21306e+18 137.898 138.398 136.31 7477.22 -0.555883 2.08187 2.21306e+18 0 0 0 0 0 
3165 0 143.377 2.20118e+18 142.04 137.586 136.572 7477.72 -0.899439 0.904637 2.20103e+18 0 0 0 1.53525e+14 0 
3169 0 143.793 2.20758e+18 151.921 138.737 136.811 7476.93 -0.222374 -0.0365421 2.20707e+18 0 0 0 5.11749e+14 0 
3173 0 144.107 2.21239e+18 164.06 139.876 136.612 7477.05 -1.20821 0.387458 2.21142e+18 0 0 1.0235e+14 7.67623e+14 1.0235e+14 
3177 0 143.327 2.20042e+18 166.454 138.515 135.904 7476.25 0.495076 1.48121 2.19929e+18 0 0 2.04699e+14 9.21147e+14 0 
3181 0 144.303 2.21541e+18 188.501 141.854 137.792 7474.91 0.920621 0.521165 2.21321e+18 0 0 6.14098e+14 1.58642e+15 0 
3185 0 144.113 2.21249e+18 204.324 143.452 138.253 7475.1 0.28376 1.78761 2.20906e+18 0 0 7.67623e+14 2.55874e+15 1.0235e+14 
3289 0 144.503 2.21848e+18 139.333 137.939 136.508 7477.82 0.194298 0.44869 2.21843e+18 0 0 0 5.11749e+13 0 
3293 0 144.497 2.21838e+18 137.417 138.781 136.165 7477.77 0.265128 1.19136 2.21833e+18 0 0 5.11749e+13 0 0 
3297 0 144.8 2.22304e+18 142.382 137.665 136.092 7478.15 -1.38589 -0.231195 2.22283e+18 0 0 0 2.04699e+14 0 
3301 0 143.953 2.21004e+18 142.701 138.931 135.771 7477.54 0.151637 -0.159716 2.20999e+18 0 0 5.11749e+13 0 0 
3305 0 144.66 2.22089e+18 144.627 138.577 136.474 7477.37 -2.17854 0.0408421 2.22073e+18 0 0 0 1.53525e+14 0 
3309 0 144.937 2.22513e+18 151.642 137.506 136.438 7478.64 -0.421486 -1.28005 2.22447e+18 0 0 1.53525e+14 5.11749e+14 0 
3313 0 144.673 2.22109e+18 166.107 140.714 136.796 7476.63 0.0344651 -0.868045 2.22012e+18 0 0 2.55874e+14 7.16448e+14 0 
3317 0 144.6 2.21997e+18 187.008 140.288 137.407 7474.55 -1.42615 -0.342405 2.21817e+18 0 0 2.04699e+14 1.58642e+15 0 
3321 0 144.023 2.21111e+18 217.153 144.208 138.073 7473.97 1.43219 -0.585954 2.20799e+18 5.11749e+13 0 6.65273e+14 2.35404e+15 5.11749e+13 
3429 0 143.653 2.20543e+18 137.132 136.904 135.646 7478.44 -0.833331 -1.6212 2.20543e+18 0 0 0 0 0 
3433 0 144.377 2.21654e+18 139.888 137.24 135.789 7476.52 -1.46154 1.67932 2.21643e+18 0 0 0 1.0235e+14 0 
3437 0 144.667 2.22099e+18 142.593 137.23 136.91 7477.98 -1.20897 0.0310457 2.22084e+18 0 0 5.11749e+13 1.0235e+14 0 
3441 0 144.017 2.21101e+18 139.945 136.151 136.394 7478.56 0.543764 -0.908469 2.21091e+18 0 0 5.11749e+13 5.11749e+13 0 
3445 0 145.12 2.22795e+18 155.922 141.19 136.513 7477.09 -0.211835 0.373743 2.22739e+18 0 0 1.0235e+14 4.60574e+14 0 
3449 0 143.537 2.20364e+18 163.216 137.266 136.681 7477.05 -0.779585 0.109007 2.20292e+18 0 0 1.0235e+14 6.14098e+14 0 
3453 0 143.463 2.20251e+18 162.692 136.846 136.498 7476.4 0.154972 -0.960867 2.20149e+18 0 0 1.0235e+14 8.18798e+14 1.0235e+14 
3457 0 145.117 2.2279e+18 188.772 141.892 137.274 7476.22 0.76958 1.02573 2.22539e+18 0 0 5.62923e+14 1.84229e+15 1.0235e+14 
3565 0 143.657 2.20548e+18 139.206 138.532 136.623 7476.54 0.182134 -0.505823 2.20543e+18 0 0 0 5.11749e+13 0 
3569 0 144.893 2.22447e+18 138.065 138.042 136.672 7475.58 -1.02303 -0.802564 2.22442e+18 0 0 0 5.11749e+13 0 
3573 0 145.363 2.23168e+18 146.243 138.642 136.905 7478.12 0.511624 -0.364677 2.23143e+18 0 0 0 2.55874e+14 0 
3577 0 144.187 2.21362e+18 142.393 138.762 136.404 7476.45 0.581056 -0.34778 2.21331e+18 0 0 1.0235e+14 2.04699e+14 0 
3581 0 144.367 2.21638e+18 159.694 140.374 137.284 7475.02 -2.18001 0.242082 2.21572e+18 0 0 1.0235e+14 5.62923e+14 0 
3585 0 143.353 2.20083e+18 145.464 137.527 136.791 7477.39 -0.312074 -0.145686 2.20026e+18 0 0 1.53525e+14 4.09399e+14 0 
3589 0 144.83 2.2235e+18 165.843 141.233 137.318 7474.75 0.0965445 0.250257 2.22222e+18 0 0 4.09399e+14 8.69972e+14 0 
3593 0 145.01 2.22626e+18 190.385 142.297 137.864 7473.85 -0.151712 0.241974 2.22411e+18 0 0 3.58224e+14 1.79112e+15 0 
3701 0 144.637 2.22053e+18 137.273 137.747 136.395 7477.59 -0.18294 0.0446592 2.22043e+18 0 0 0 1.0235e+14 0 
3705 0 144.197 2.21377e+18 147.766 136.929 135.587 7477.19 -0.076588 -0.234548 2.21347e+18 0 0 0 3.07049e+14 0 
3709 0 145.157 2.22851e+18 146.692 138.074 136.256 7477.11 -0.238426 0.389514 2.2282e+18 0 0 0 3.07049e+14 0 
3713 0 144.183 2.21357e+18 142.665 139.817 136.488 7475.37 -0.974032 0.677256 2.21306e+18 5.11749e+13 0 1.53525e+14 3.07049e+14 0 
3717 0 144.037 2.21132e+18 151.806 140.087 137.063 7477.09 -0.920566 0.242982 2.2106e+18 5.11749e+13 0 2.04699e+14 4.60574e+14 0 
3721 0 144.053 2.21157e+18 151.538 141.376 137.382 7474.84 0.666255 0.286139 2.2104e+18 0 0 5.11749e+14 6.65273e+14 0 
3725 0 144.447 2.21761e+18 151.097 136.182 136.415 7477.11 -0.724166 0.00209723 2.21705e+18 0 0 0 5.62923e+14 0 
3729 0 143.533 2.20359e+18 190.293 139.719 137.163 7475.2 -0.423412 1.0546 2.20154e+18 0 0 3.58224e+14 1.6376e+15 5.11749e+13 
3733 0 144.54 2.21904e+18 197.814 141.995 137.647 7473.52 1.7264 -0.929741 2.21597e+18 0 0 8.69972e+14 2.20052e+15 0 
3837 0 143.947 2.20993e+18 145.355 138.152 136.486 7477.06 0.031156 -0.135987 2.20983e+18 0 0 5.11749e+13 5.11749e+13 0 
3841 0 144.5 2.21843e+18 137.036 138.403 136.789 7478 -0.907412 0.579644 2.21843e+18 0 0 0 0 0 
3845 0 143.777 2.20732e+18 140.22 137.839 136.715 7476.64 -0.519732 -0.596523 2.20707e+18 0 0 5.11749e+13 2.04699e+14 0 
3849 0 143.91 2.20937e+18 145.675 143.978 136.833 7475.99 -0.266323 0.17885 2.20896e+18 0 0 2.55874e+14 1.53525e+14 0 
3853 0 143.82 2.20799e+18 160.37 141.015 136.866 7477.17 0.52652 -0.198356 2.20692e+18 0 0 2.55874e+14 8.18798e+14 0 
3857 0 144.473 2.21802e+18 152.377 140.363 137.425 7476.06 0.445568 -0.764018 2.21715e+18 0 0 3.58224e+14 4.60574e+14 5.11749e+13 
3861 0 143.31 2.20016e+18 157.029 141.477 137.018 7475.5 0.765903 -0.732422 2.19919e+18 0 0 2.55874e+14 7.16448e+14 0 
3865 0 144.053 2.21157e+18 162.789 141.605 137.154 7476.5 0.104468 0.00556804 2.2104e+18 0 0 2.55874e+14 9.21147e+14 0 
3869 0 144.32 2.21567e+18 189.729 142.637 137.347 7473.59 -0.262535 -1.85653 2.2129e+18 0 0 6.14098e+14 2.14934e+15 0 
3977 0 144.38 2.21659e+18 139.621 137.782 135.909 7477.69 0.391378 0.296057 2.21654e+18 0 0 0 5.11749e+13 0 
3981 0 145.457 2.23312e+18 138.695 137.555 136.3 7477.33 -0.588812 1.26678 2.23301e+18 0 0 0 5.11749e+13 5.11749e+13 