ITEM: TIMESTEP
22000
ITEM: NUMBER OF CELLS
10393
ITEM: BOX BOUNDS oo ao pp
-10 10
0 10
-0.5 0.5
ITEM: CELLS id proc f_avg_n f_avg_nrho f_avg_temp_tra f_avg_temp_rot f_avg_temp_vib f_avg_vel[1] f_avg_vel[2] f_avg_vel[3] f_avg_nrho_CO2 f_avg_nrho_O2 f_avg_nrho_C2 f_avg_nrho_CO f_avg_nrho_O f_avg_nrho_C 
1 0 145.498 2.23375e+18 137.87 137.794 136.588 7478.21 6.17871 -0.276063 2.23375e+18 0 0 0 0 0 
5 0 154.126 2.36621e+18 139.038 137.101 136.414 7477.09 25.8177 -0.547239 2.36621e+18 0 0 0 0 0 
9 0 160.766 2.46815e+18 144.832 137.539 136.814 7476.73 32.8092 0.207139 2.46796e+18 0 0 3.41166e+13 1.53525e+14 0 
13 0 163.984 2.51756e+18 144.196 138.612 136.474 7477.29 34.4927 -0.613054 2.51721e+18 1.70583e+13 0 3.41166e+13 3.07049e+14 0 
17 0 166.327 2.55352e+18 148.416 138.027 136.622 7476.91 32.33 0.14819 2.55299e+18 1.70583e+13 0 3.41166e+13 4.77632e+14 0 
21 0 166.292 2.55299e+18 150.126 139.851 136.913 7476.08 28.3188 -0.0223522 2.55211e+18 0 0 2.72933e+14 6.14098e+14 0 
25 0 164.483 2.52522e+18 172.456 142.713 137.352 7475.54 23.1661 1.17876 2.52338e+18 1.70583e+13 0 3.24107e+14 1.50113e+15 0 
29 0 162.468 2.49428e+18 174.12 143.816 136.701 7474.87 17.7558 -0.597432 2.49218e+18 0 0 4.43515e+14 1.56936e+15 8.52914e+13 
33 0 159.554 2.44955e+18 226.78 152.538 138.094 7470.72 15.7366 -1.1321 2.44517e+18 0 0 9.8938e+14 3.20696e+15 1.87641e+14 
141 0 144.382 2.21662e+18 140.589 137.681 136.405 7476.5 -0.110098 0.400904 2.2165e+18 0 0 0 1.19408e+14 0 
145 0 143.99 2.2106e+18 147.045 137.791 136.702 7476.57 0.13944 0.142361 2.21038e+18 0 0 0 1.70583e+14 5.11749e+13 
149 0 144.621 2.22029e+18 144.948 137.009 136.535 7476.95 -0.265523 0.0383326 2.22008e+18 0 0 3.41166e+13 1.70583e+14 0 
153 0 144.666 2.22097e+18 147.029 138.464 136.782 7476.16 0.189792 1.0289 2.22055e+18 0 0 1.36466e+14 2.89991e+14 0 
157 0 144.488 2.21824e+18 165.9 140.834 136.607 7474.94 0.948831 0.170879 2.21698e+18 0 0 2.38816e+14 1.00644e+15 1.70583e+13 
161 0 145.566 2.23479e+18 178.182 139.579 136.98 7474.83 2.89679 -0.27536 2.23315e+18 0 0 2.89991e+14 1.31349e+15 3.41166e+13 
165 0 147.043 2.25748e+18 191.793 142.12 137.904 7473.3 4.47321 -0.118224 2.25521e+18 1.70583e+13 0 5.45865e+14 1.58642e+15 1.19408e+14 
169 0 147.251 2.26067e+18 230.85 149.288 138.43 7470.91 5.88479 0.717821 2.25604e+18 0 0 1.12585e+15 3.41166e+15 8.52914e+13 
277 0 144.142 2.21294e+18 142.671 138.714 136.237 7477.86 -0.828631 0.251683 2.21283e+18 0 0 3.41166e+13 6.82331e+13 0 
281 0 144.311 2.21553e+18 147.502 138.823 136.286 7477.02 0.213998 -0.151384 2.21533e+18 0 0 6.82331e+13 1.19408e+14 1.70583e+13 
285 0 144.279 2.21504e+18 151.646 138.078 136.479 7476.72 -1.13582 1.50909 2.21469e+18 0 0 6.82331e+13 2.72933e+14 0 
289 0 143.544 2.20376e+18 147.627 139.833 136.543 7477.36 0.16497 0.504413 2.20332e+18 0 0 1.70583e+14 2.55874e+14 1.70583e+13 
293 0 144.062 2.21171e+18 147.538 138.812 136.587 7476.91 -0.0328648 0.684037 2.21128e+18 0 0 1.0235e+14 3.07049e+14 1.70583e+13 
297 0 144.166 2.2133e+18 168.299 139.596 136.295 7475.7 0.20944 0.204329 2.21171e+18 0 0 2.38816e+14 1.3476e+15 0 
301 0 143.839 2.20828e+18 185.494 141.606 137.027 7475.14 1.29624 0.241739 2.20598e+18 0 0 4.26457e+14 1.84229e+15 3.41166e+13 
305 0 144.302 2.21539e+18 220.038 146.454 138.417 7471.27 1.27286 0.627487 2.21176e+18 1.70583e+13 0 9.55264e+14 2.5758e+15 8.52914e+13 
413 0 144.551 2.21921e+18 146.353 136.993 136.565 7476.74 -0.197561 0.075081 2.21904e+18 0 0 0 1.0235e+14 6.82331e+13 
417 0 144.911 2.22474e+18 142.518 137.807 136.484 7476.91 0.306569 -0.133664 2.2246e+18 0 0 1.70583e+13 1.19408e+14 0 
421 0 144.704 2.22157e+18 142.347 138.606 136.749 7476.57 -0.687627 -0.478786 2.22145e+18 0 0 3.41166e+13 8.52914e+13 0 
425 0 144.402 2.21693e+18 147.435 137.8 136.582 7476.15 -0.0746029 -0.229631 2.21659e+18 0 0 3.41166e+13 2.89991e+14 1.70583e+13 
429 0 143.746 2.20685e+18 164.454 139.811 136.55 7475.63 0.84885 -0.58488 2.20589e+18 0 0 2.04699e+14 7.50564e+14 0 
433 0 145.049 2.22686e+18 166.876 141.264 137.344 7476.12 -0.370834 0.134288 2.22565e+18 0 0 3.41166e+14 8.35856e+14 3.41166e+13 
437 0 144.482 2.21816e+18 188.315 141.944 137.553 7474.02 -0.220633 0.642464 2.21613e+18 0 0 4.77632e+14 1.53525e+15 1.70583e+13 
441 0 143.804 2.20775e+18 220.492 142.551 138.15 7473.18 -0.179203 -0.0443381 2.20451e+18 0 0 5.9704e+14 2.62698e+15 1.70583e+13 
445 0 145.133 2.22815e+18 304.493 150.77 138.7 7468.28 0.078873 0.641127 2.22116e+18 1.70583e+13 0 1.72289e+15 5.1516e+15 1.0235e+14 
549 0 144.539 2.21903e+18 141.021 137.509 136.641 7477.51 -0.634104 0.166034 2.21898e+18 0 0 1.70583e+13 3.41166e+13 0 
553 0 143.914 2.20944e+18 139.991 137.157 136.262 7477.12 0.103224 0.441878 2.20927e+18 0 0 3.41166e+13 1.19408e+14 1.70583e+13 
557 0 144.467 2.21792e+18 140.788 137.323 136.208 7476.54 0.131835 0.383417 2.2177e+18 0 0 6.82331e+13 1.53525e+14 0 
561 0 144.558 2.21932e+18 145.083 138.237 136.828 7476.81 -0.169053 0.191132 2.21879e+18 0 0 1.70583e+14 3.41166e+14 1.70583e+13 
565 0 144.519 2.21872e+18 153.18 138.887 136.757 7476.09 -0.113318 -0.633554 2.21795e+18 0 0 2.55874e+14 5.11749e+14 0 
569 0 144.489 2.21826e+18 157 139.528 136.877 7476.39 -0.32744 -0.35758 2.21744e+18 0 0 2.55874e+14 5.11749e+14 5.11749e+13 
573 0 145.011 2.22628e+18 183.621 141.635 136.995 7475.2 0.69122 0.700994 2.22438e+18 0 0 4.26457e+14 1.44995e+15 1.70583e+13 
577 0 144.638 2.22055e+18 197.442 141.554 137.561 7473.73 -0.463552 0.112771 2.21775e+18 1.70583e+13 0 4.9469e+14 2.20052e+15 8.52914e+13 
581 0 144.288 2.21517e+18 267.346 151.263 139.446 7469.84 0.118337 -0.639759 2.2093e+18 1.70583e+13 0 1.39878e+15 4.34986e+15 1.0235e+14 
689 0 144.469 2.21795e+18 139.198 137.917 136.82 7477.7 -0.607136 -0.738269 2.21788e+18 0 0 1.70583e+13 5.11749e+13 0 
693 0 144.388 2.21671e+18 145.099 138.202 136.489 7477.54 -0.344965 0.485438 2.2165e+18 0 0 1.70583e+13 1.70583e+14 1.70583e+13 
697 0 143.967 2.21024e+18 145.606 139.813 136.279 7477.57 -0.574393 0.621174 2.20983e+18 0 0 8.52914e+13 3.07049e+14 1.70583e+13 
701 0 143.374 2.20115e+18 157.122 137.802 137.03 7476.23 -0.343616 0.418238 2.20062e+18 0 0 6.82331e+13 4.60574e+14 0 
705 0 144.38 2.21659e+18 150.9 139.071 137.039 7475.9 -0.571959 -0.799506 2.21587e+18 0 0 2.04699e+14 4.77632e+14 3.41166e+13 
709 0 144.63 2.22043e+18 171.819 139.306 136.755 7476.13 -0.239777 0.673198 2.21901e+18 0 0 2.55874e+14 1.14291e+15 1.70583e+13 
713 0 144.497 2.21838e+18 202.061 141.182 137.781 7473.85 0.299929 -0.069775 2.2158e+18 0 0 4.9469e+14 1.99582e+15 8.52914e+13 
717 0 144.521 2.21875e+18 239.787 147.426 138.286 7470.5 0.0576718 0.312274 2.21442e+18 3.41166e+13 0 1.09173e+15 3.13872e+15 6.82331e+13 
825 0 144.054 2.21159e+18 140.78 137.158 136.56 7477.36 0.391915 -0.534807 2.2115e+18 0 0 1.70583e+13 6.82331e+13 0 
829 0 144.401 2.21691e+18 143.458 137.419 136.056 7476.79 -0.588223 0.065276 2.21676e+18 0 0 1.70583e+13 1.36466e+14 0 
833 0 144.738 2.22208e+18 147.934 138.256 136.995 7476.29 0.0394626 0.557226 2.22181e+18 0 0 0 2.72933e+14 0 
837 0 143.802 2.20772e+18 149.334 137.634 137.095 7477.02 0.228101 0.394971 2.20734e+18 0 0 5.11749e+13 3.24107e+14 0 
841 0 144.354 2.2162e+18 155.874 138.841 136.733 7476.05 -0.743287 0.219634 2.21534e+18 0 0 1.53525e+14 6.9939e+14 0 
845 0 144.46 2.21782e+18 160.714 140.825 137.556 7475.84 0.4972 0.187866 2.21683e+18 0 0 2.21758e+14 7.67623e+14 0 
849 0 144.041 2.21138e+18 194.836 141.333 137.098 7474.31 0.713458 0.565159 2.20917e+18 1.70583e+13 0 4.77632e+14 1.6376e+15 8.52914e+13 
853 0 143.931 2.2097e+18 231.342 143.307 138.095 7471.98 -0.46026 0.00386946 2.20552e+18 0 0 1.00644e+15 3.08755e+15 8.52914e+13 
961 0 144.493 2.21833e+18 140.385 137.241 136.497 7477.42 -0.0506642 -0.0245295 2.21826e+18 0 0 0 5.11749e+13 1.70583e+13 
965 0 143.907 2.20932e+18 141.733 137.349 136.626 7476.92 0.366362 0.0515524 2.20917e+18 0 0 1.70583e+13 1.19408e+14 1.70583e+13 
969 0 143.841 2.20831e+18 144.637 137.25 136.84 7476.91 -0.118651 0.490377 2.20813e+18 0 0 1.70583e+13 1.70583e+14 0 
973 0 144.326 2.21575e+18 145.504 138.36 136.766 7476.61 -0.126195 0.107702 2.21546e+18 0 0 3.41166e+13 2.38816e+14 1.70583e+13 
977 0 144.296 2.21529e+18 152.222 138.248 136.547 7477.23 0.462712 0.0777978 2.21473e+18 0 0 6.82331e+13 4.60574e+14 3.41166e+13 
981 0 143.906 2.2093e+18 160.56 138.947 137.156 7475.64 -0.189716 0.680379 2.20837e+18 0 0 2.04699e+14 7.33506e+14 0 
985 0 143.946 2.20992e+18 179.77 142.133 137.294 7474.88 -0.0275226 0.224067 2.20818e+18 1.70583e+13 0 4.26457e+14 1.29643e+15 0 
989 0 144.621 2.22029e+18 212.981 143.494 137.724 7472.9 0.236569 0.834826 2.2172e+18 1.70583e+13 0 7.16448e+14 2.26875e+15 8.52914e+13 
993 0 144.576 2.21959e+18 275.14 149.705 139.331 7469.03 0.574687 1.27642 2.21341e+18 6.82331e+13 0 1.51819e+15 4.43515e+15 1.53525e+14 
1097 0 144.106 2.21237e+18 141.081 137.829 136.257 7477.6 0.277637 0.0432113 2.21231e+18 0 0 0 6.82331e+13 0 
1101 0 144.091 2.21215e+18 137.699 136.921 136.774 7477.46 -0.0615295 0.275988 2.21212e+18 0 0 0 3.41166e+13 0 
1105 0 143.986 2.21053e+18 142.006 138.521 136.445 7477.2 -0.0911343 0.115701 2.21036e+18 0 0 1.70583e+13 1.53525e+14 0 
1109 0 144.077 2.21193e+18 143.552 137.61 136.603 7477.28 -0.217236 0.309823 2.21162e+18 0 0 6.82331e+13 2.38816e+14 0 
1113 0 144.16 2.21321e+18 151.164 138.359 136.87 7478.16 -0.189852 0.46373 2.21277e+18 0 0 1.19408e+14 3.24107e+14 0 
1117 0 144.611 2.22014e+18 157.653 138.744 136.41 7477.15 0.355663 -0.415441 2.21935e+18 0 0 1.36466e+14 6.48215e+14 0 
1121 0 144.423 2.21725e+18 171.223 138.806 136.899 7475.99 -0.516745 0.0994457 2.21584e+18 0 0 3.41166e+14 1.05761e+15 1.70583e+13 
1125 0 143.907 2.20932e+18 206.184 143.448 137.546 7473.99 -0.151173 0.946378 2.20686e+18 1.70583e+13 0 5.79982e+14 1.84229e+15 1.70583e+13 
1129 0 144.662 2.22092e+18 261.249 148.324 138.455 7470.22 0.78643 -0.453488 2.21553e+18 5.11749e+13 0 1.24525e+15 4.04281e+15 5.11749e+13 
1237 0 144.899 2.22455e+18 140.749 138.186 136.556 7477.72 -1.55781 0.117786 2.22449e+18 0 0 0 5.11749e+13 1.70583e+13 
1241 0 144.069 2.21181e+18 140.485 138.104 136.533 7477.22 -0.114581 -0.832461 2.21162e+18 0 0 6.82331e+13 1.19408e+14 0 
1245 0 144.51 2.21858e+18 146.001 138.136 136.426 7477.48 0.166752 0.306295 2.21831e+18 0 0 1.70583e+13 2.55874e+14 0 
1249 0 144.419 2.21718e+18 145.624 138.523 136.716 7476.54 -1.16963 -0.19547 2.21689e+18 0 0 6.82331e+13 2.21758e+14 0 
1253 0 144.418 2.21717e+18 151.27 138.514 136.428 7476.5 0.542464 -0.362463 2.2166e+18 0 0 6.82331e+13 4.60574e+14 3.41166e+13 
1257 0 143.99 2.2106e+18 168.162 141.163 136.83 7475.52 0.00477901 0.269069 2.20915e+18 1.70583e+13 0 3.92341e+14 9.8938e+14 5.11749e+13 
1261 0 145.25 2.22994e+18 193.073 143.246 137.428 7474.78 0.124243 0.662465 2.22783e+18 0 0 5.9704e+14 1.50113e+15 1.70583e+13 
1265 0 144.572 2.21954e+18 240.36 142.853 138.43 7471.91 -0.421048 0.160727 2.21572e+18 0 0 9.8938e+14 2.79756e+15 3.41166e+13 
1373 0 144.161 2.21323e+18 144.787 136.999 136.881 7477.11 -0.44046 0.261378 2.21312e+18 0 0 3.41166e+13 6.82331e+13 0 
1377 0 144.607 2.22007e+18 144.637 137.587 136.694 7476.66 0.0652287 0.445839 2.21997e+18 0 0 3.41166e+13 6.82331e+13 0 
1381 0 144.678 2.22116e+18 145.458 136.546 136.603 7476.81 -0.845039 0.447275 2.22094e+18 0 0 1.70583e+13 2.04699e+14 0 
1385 0 144.441 2.21753e+18 147.404 138.564 136.698 7477.04 -0.315858 0.588876 2.21715e+18 0 0 8.52914e+13 2.72933e+14 1.70583e+13 
1389 0 144.17 2.21336e+18 159.999 138.981 137.045 7475.86 -0.1767 0.497204 2.21254e+18 0 0 1.36466e+14 6.82331e+14 0 
1393 0 144.704 2.22157e+18 164.118 140.537 137.318 7475.12 -0.33576 0.880366 2.22032e+18 3.41166e+13 0 3.41166e+14 8.01739e+14 6.82331e+13 
1397 0 144.326 2.21575e+18 184.163 141.444 137.538 7475.01 0.064545 0.94846 2.21365e+18 1.70583e+13 0 5.11749e+14 1.51819e+15 5.11749e+13 
1401 0 144.656 2.22082e+18 211.912 145.568 137.872 7472.75 0.631279 -0.143116 2.21753e+18 3.41166e+13 0 7.16448e+14 2.49051e+15 5.11749e+13 
1509 0 144.624 2.22034e+18 138.361 138.25 136.264 7477.24 0.260467 -0.399246 2.22031e+18 0 0 1.70583e+13 1.70583e+13 0 
1513 0 144.424 2.21727e+18 139.429 138.01 136.54 7476.99 -1.02699 0.643305 2.21718e+18 0 0 5.11749e+13 3.41166e+13 0 
1517 0 144.146 2.21299e+18 143.589 138.249 136.936 7477.95 0.165926 0.132315 2.2128e+18 0 0 3.41166e+13 1.53525e+14 0 
1521 0 144.593 2.21986e+18 149.941 137.328 136.334 7476.76 0.535081 0.0355519 2.21945e+18 0 0 5.11749e+13 3.58224e+14 0 
1525 0 144.076 2.21191e+18 153.099 140.467 136.372 7476.52 -0.505123 1.00774 2.21128e+18 0 0 1.87641e+14 4.26457e+14 1.70583e+13 
1529 0 143.944 2.2099e+18 169.922 140.969 137.429 7476.46 -0.163682 0.614883 2.20881e+18 0 0 3.41166e+14 6.9939e+14 5.11749e+13 
1533 0 144.339 2.21596e+18 181.434 141.026 137.168 7474.99 0.851597 0.626782 2.21413e+18 0 0 3.92341e+14 1.41584e+15 1.70583e+13 
1537 0 144.673 2.22109e+18 212.22 143.159 137.734 7473.55 -0.459847 0.189897 2.21794e+18 3.41166e+13 0 7.16448e+14 2.33698e+15 6.82331e+13 
1541 0 144.692 2.22138e+18 282.392 151.291 138.986 7468.99 1.66513 0.909734 2.21533e+18 1.70583e+13 0 1.53525e+15 4.3328e+15 1.70583e+14 
1645 0 144.203 2.21388e+18 139.085 137.518 136.307 7477.82 -0.39414 0.042398 2.21384e+18 0 0 0 3.41166e+13 0 
1649 0 144.097 2.21224e+18 140.26 137.563 136.604 7476.33 -0.329367 0.428389 2.21217e+18 0 0 1.70583e+13 5.11749e+13 0 
1653 0 144.028 2.21118e+18 143.772 139.086 136.29 7477.06 -0.261953 -0.594579 2.21096e+18 0 0 5.11749e+13 1.53525e+14 1.70583e+13 
1657 0 144.432 2.21739e+18 146.017 138.371 136.353 7477.42 -0.0382457 -0.545398 2.21703e+18 0 0 5.11749e+13 3.07049e+14 0 
1661 0 144.241 2.21446e+18 148.275 138.328 136.7 7476.37 -0.363979 -0.00150966 2.21403e+18 0 0 1.19408e+14 2.89991e+14 1.70583e+13 
1665 0 144.897 2.22452e+18 156.659 139.487 136.551 7476.9 0.335038 -0.321156 2.22394e+18 0 0 1.36466e+14 4.43515e+14 0 
1669 0 144.474 2.21804e+18 168.753 140.22 136.664 7475.82 -0.0842213 -0.353879 2.21698e+18 1.70583e+13 0 2.04699e+14 8.01739e+14 3.41166e+13 
1673 0 144.33 2.21582e+18 201.587 144.245 137.333 7473.36 0.98182 -0.334056 2.21321e+18 1.70583e+13 0 4.9469e+14 2.04699e+15 5.11749e+13 
1677 0 144.3 2.21536e+18 233.814 147.017 138.312 7471.88 0.869186 -0.610073 2.21137e+18 0 0 9.55264e+14 2.88285e+15 1.53525e+14 
1785 0 144.351 2.21614e+18 140.216 137.52 136.349 7477.16 -0.0204486 -0.409377 2.21606e+18 0 0 1.70583e+13 6.82331e+13 0 
1789 0 144.324 2.21573e+18 140.286 137.999 136.671 7476.57 0.350348 0.339402 2.21558e+18 0 0 5.11749e+13 8.52914e+13 1.70583e+13 
1793 0 144.104 2.21236e+18 144.485 137.26 136.621 7476.18 0.413237 0.517444 2.21208e+18 0 0 1.70583e+13 2.21758e+14 3.41166e+13 
1797 0 144.301 2.21538e+18 146.717 138.441 136.328 7477.16 -0.173772 0.580746 2.21492e+18 0 0 1.0235e+14 3.58224e+14 0 
1801 0 144.711 2.22167e+18 156.325 138.742 136.424 7476.62 0.508405 0.25373 2.22102e+18 1.70583e+13 0 5.11749e+13 5.62923e+14 1.70583e+13 
1805 0 145.14 2.22826e+18 175.097 140.737 137.197 7474.64 0.318502 0.345075 2.22689e+18 0 0 3.24107e+14 9.8938e+14 5.11749e+13 
1809 0 144.56 2.21935e+18 178.565 141.832 137.113 7474.92 -0.05162 0.0542632 2.21727e+18 0 0 5.28807e+14 1.50113e+15 5.11749e+13 
1813 0 144.311 2.21553e+18 221.786 148.021 138.897 7471.87 0.318395 0.178068 2.21178e+18 0 0 1.07467e+15 2.60992e+15 6.82331e+13 
1921 0 143.888 2.20903e+18 138.295 137.77 136.876 7477.03 -0.332801 0.282751 2.209e+18 0 0 1.70583e+13 1.70583e+13 0 
1925 0 144.49 2.21828e+18 141.597 137.495 136.783 7476.81 -0.882287 -0.255232 2.21819e+18 0 0 1.70583e+13 6.82331e+13 0 
1929 0 144.374 2.2165e+18 141.32 137.874 136.282 7476.19 0.0174145 0.788563 2.21637e+18 0 0 3.41166e+13 1.0235e+14 0 
1933 0 143.602 2.20465e+18 143.954 138.093 136.601 7477.16 -0.73 -0.400799 2.20441e+18 0 0 5.11749e+13 1.70583e+14 1.70583e+13 
1937 0 144.878 2.22423e+18 158.87 139.2 137.264 7476.52 0.184897 -0.117951 2.22327e+18 0 0 2.72933e+14 6.14098e+14 6.82331e+13 
1941 0 144.222 2.21417e+18 158.545 138.95 136.448 7476.52 0.0415903 0.180607 2.21336e+18 1.70583e+13 0 1.87641e+14 5.62923e+14 3.41166e+13 
1945 0 144.461 2.21783e+18 184.452 140.853 137.198 7474.92 0.587209 -0.560049 2.2162e+18 0 0 2.21758e+14 1.29643e+15 1.19408e+14 
1949 0 143.93 2.20968e+18 209.37 145.453 137.777 7472.63 0.674793 -0.364935 2.2062e+18 0 0 8.35856e+14 2.62698e+15 1.70583e+13 
2057 0 144.248 2.21456e+18 139.658 137.419 136.972 7477.94 -0.369656 -0.335182 2.21451e+18 0 0 0 5.11749e+13 0 
2061 0 144.112 2.21248e+18 140.628 138.483 136.644 7478.11 0.548613 -0.0701579 2.21237e+18 0 0 1.70583e+13 8.52914e+13 0 
2065 0 144.256 2.21468e+18 142.909 137.658 136.39 7477.68 -0.390911 0.0508161 2.21456e+18 0 0 0 1.19408e+14 0 
2069 0 144.101 2.21231e+18 143.968 138.034 136.955 7477.43 0.19906 -0.226455 2.21202e+18 0 0 5.11749e+13 2.21758e+14 1.70583e+13 
2073 0 144.322 2.2157e+18 150.53 138.731 136.829 7477.44 -0.0431214 -0.0890493 2.21515e+18 0 0 1.53525e+14 3.58224e+14 3.41166e+13 
2077 0 144.594 2.21988e+18 161.121 139.929 137.391 7477.02 -0.484101 0.699862 2.21891e+18 0 0 2.55874e+14 6.82331e+14 3.41166e+13 
2081 0 143.724 2.20652e+18 174.952 142.078 137.215 7475.06 0.619683 0.112933 2.20485e+18 0 0 3.58224e+14 1.27937e+15 3.41166e+13 
2085 0 144.261 2.21476e+18 195.675 143.117 137.464 7473.91 0.271753 0.326282 2.21234e+18 1.70583e+13 0 5.62923e+14 1.757e+15 8.52914e+13 
2089 0 144.262 2.21478e+18 255.818 147.397 138.268 7471.01 1.03326 0.399749 2.20963e+18 1.70583e+13 0 1.09173e+15 3.97458e+15 6.82331e+13 
2193 0 144.121 2.21261e+18 139.606 137.854 136.601 7477.31 -0.131377 0.14813 2.21256e+18 0 0 0 5.11749e+13 0 
2197 0 144.007 2.21086e+18 142.189 137.547 136.507 7477.49 -0.228641 0.910616 2.21074e+18 0 0 0 1.19408e+14 0 
2201 0 143.757 2.20702e+18 146.091 137.046 136.358 7477.34 0.265847 0.252086 2.2068e+18 0 0 3.41166e+13 1.87641e+14 0 
2205 0 144.589 2.21979e+18 144.039 138.047 136.561 7476.9 0.256114 -0.36886 2.21961e+18 0 0 1.70583e+13 1.53525e+14 1.70583e+13 
2209 0 144.209 2.21396e+18 143.087 137.645 136.552 7477.27 0.541194 1.1931 2.21374e+18 3.41166e+13 0 5.11749e+13 1.19408e+14 1.70583e+13 
2213 0 143.832 2.20818e+18 152.619 138.978 137.198 7476.5 0.0600785 -0.0266242 2.20755e+18 1.70583e+13 0 1.53525e+14 4.43515e+14 1.70583e+13 
2217 0 144.621 2.22029e+18 167.675 140.532 137.353 7475.81 0.450443 0.348995 2.21915e+18 0 0 2.38816e+14 8.87031e+14 1.70583e+13 
2221 0 144.603 2.22002e+18 182.627 143.555 137.669 7474.85 0.53989 1.07352 2.21747e+18 0 0 6.31157e+14 1.77406e+15 1.36466e+14 
2225 0 144.128 2.21272e+18 243.342 147.582 138.465 7471.5 1.28862 -0.229375 2.20871e+18 1.70583e+13 0 1.26231e+15 2.66109e+15 6.82331e+13 
2333 0 144.483 2.21817e+18 141.162 137.601 136.86 7477.95 0.085144 0.916481 2.21809e+18 0 0 1.70583e+13 6.82331e+13 0 
2337 0 144.119 2.21258e+18 140.504 137.28 136.315 7477.23 0.265489 -0.325756 2.21249e+18 0 0 0 8.52914e+13 0 
2341 0 144.16 2.21321e+18 142.219 137.237 136.98 7477.48 -0.129206 -0.117969 2.21301e+18 0 0 6.82331e+13 1.36466e+14 0 
2345 0 144.241 2.21446e+18 147.779 139.118 136.59 7476.34 -0.484456 0.142863 2.21417e+18 0 0 8.52914e+13 2.04699e+14 0 
2349 0 143.66 2.20553e+18 146.583 138.176 137.071 7476.3 0.00950212 -0.598028 2.20519e+18 0 0 5.11749e+13 2.89991e+14 0 
2353 0 143.976 2.21038e+18 161.509 138.772 136.602 7476.15 0.344312 0.559456 2.20925e+18 0 0 2.72933e+14 7.84681e+14 6.82331e+13 
2357 0 144.772 2.22261e+18 173.5 140.855 136.68 7475.11 0.175477 -0.101433 2.22078e+18 0 0 3.41166e+14 1.39878e+15 8.52914e+13 
2361 0 145.146 2.22834e+18 217.09 146.025 137.899 7472.52 0.662156 -0.871981 2.22471e+18 3.41166e+13 0 9.21147e+14 2.60992e+15 6.82331e+13 
2469 0 143.96 2.21014e+18 137.132 137.274 136.453 7477.44 0.0280093 -0.0544223 2.21014e+18 0 0 0 0 0 
2473 0 144.034 2.21128e+18 141.969 137.829 135.956 7477.72 -0.0917996 -1.2001 2.21111e+18 0 0 1.70583e+13 1.36466e+14 1.70583e+13 
2477 0 144.277 2.215e+18 146.29 137.979 136.718 7476.92 -0.3661 -0.295021 2.21483e+18 0 0 3.41166e+13 1.36466e+14 0 
2481 0 144.257 2.21469e+18 144.482 137.2 136.818 7477.51 0.601026 -0.291714 2.21435e+18 0 0 5.11749e+13 2.89991e+14 0 
2485 0 144.083 2.21203e+18 152.128 138.832 136.336 7477.01 -0.0487616 0.0147073 2.21147e+18 0 0 1.0235e+14 4.60574e+14 0 
2489 0 144.38 2.21659e+18 158.13 139.094 136.949 7476.19 0.3864 0.485123 2.2157e+18 0 0 2.38816e+14 6.31157e+14 1.70583e+13 
2493 0 144.533 2.21894e+18 174.39 140.176 137.385 7475.84 0.222676 0.683256 2.21736e+18 1.70583e+13 0 3.75282e+14 1.14291e+15 5.11749e+13 
2497 0 144.797 2.22298e+18 193.438 143.507 137.544 7473.93 -0.742539 0.479677 2.22037e+18 1.70583e+13 0 5.45865e+14 2.04699e+15 0 
2605 0 144.016 2.21099e+18 140.878 137.612 136.707 7477.02 -0.3032 0.615121 2.2108e+18 0 0 1.70583e+13 1.53525e+14 1.70583e+13 
2609 0 144.616 2.2202e+18 141.516 137.351 136.688 7476.43 -0.646098 0.184912 2.22012e+18 0 0 1.70583e+13 6.82331e+13 0 
2613 0 144.269 2.21488e+18 139.798 137.493 136.156 7476.99 0.60867 0.260051 2.21481e+18 0 0 0 6.82331e+13 0 
2617 0 144.197 2.21377e+18 143.872 137.127 136.825 7477.59 -0.361976 0.0330446 2.21352e+18 0 0 5.11749e+13 1.87641e+14 1.70583e+13 
2621 0 144.03 2.21121e+18 148.563 138.709 136.926 7476.37 0.153937 -0.807007 2.21079e+18 0 0 1.0235e+14 3.24107e+14 0 
2625 0 144.903 2.22462e+18 159.704 138.572 136.913 7475.81 0.325847 0.202685 2.22384e+18 0 0 1.87641e+14 5.79982e+14 1.70583e+13 
2629 0 144.351 2.21614e+18 181.732 140.14 137.02 7474.83 -0.165642 -0.0877043 2.21464e+18 1.70583e+13 0 3.24107e+14 1.10879e+15 5.11749e+13 
2633 0 144.35 2.21613e+18 187.667 141.258 137.069 7474.4 -0.397865 -0.246631 2.21428e+18 0 0 2.89991e+14 1.53525e+15 1.70583e+13 
2637 0 144.718 2.22177e+18 228.551 146.895 138.565 7471.38 0.48709 0.190664 2.21739e+18 0 0 1.12585e+15 3.15578e+15 1.0235e+14 
2741 0 144.53 2.21889e+18 139.534 138.141 136.556 7477.88 -0.781556 0.46168 2.21881e+18 0 0 1.70583e+13 6.82331e+13 0 
2745 0 144.282 2.21509e+18 137.726 136.643 136.971 7476.28 0.0867582 0.748933 2.21507e+18 0 0 0 1.70583e+13 0 
2749 0 143.956 2.21007e+18 141.151 137.007 136.275 7476.5 -0.334041 0.580306 2.20995e+18 0 0 0 1.19408e+14 0 
2753 0 143.911 2.20939e+18 142.152 138.259 136.067 7477.24 -0.0999 0.276925 2.20925e+18 0 0 0 1.36466e+14 0 
2757 0 144.878 2.22423e+18 147.58 138.736 136.934 7476.31 -0.25866 0.774199 2.22389e+18 0 0 1.70583e+13 3.07049e+14 1.70583e+13 
2761 0 144.558 2.21932e+18 158.272 140.823 137.087 7476.23 0.148828 -0.0601713 2.21863e+18 0 0 2.38816e+14 4.09399e+14 3.41166e+13 
2765 0 143.343 2.20067e+18 161.21 139.271 136.583 7475.24 0.873701 0.423233 2.1995e+18 0 0 2.72933e+14 8.69972e+14 3.41166e+13 
2769 0 144.323 2.21572e+18 188.706 140.851 137.412 7473.91 0.03921 0.187664 2.2134e+18 0 0 4.60574e+14 1.79112e+15 6.82331e+13 
2773 0 144.658 2.22085e+18 214.063 144.875 137.22 7473.63 0.338252 0.266009 2.21756e+18 1.70583e+13 0 7.16448e+14 2.54168e+15 1.70583e+13 
2881 0 144.301 2.21538e+18 138.713 137.724 136.742 7477.84 -0.211233 0.228512 2.21531e+18 0 0 1.70583e+13 3.41166e+13 1.70583e+13 
2885 0 144.118 2.21256e+18 141.374 137.624 136.114 7476.72 -0.480751 -0.10271 2.21248e+18 0 0 1.70583e+13 6.82331e+13 0 
2889 0 144.424 2.21727e+18 142.18 137.655 136.47 7477.29 0.174019 -0.678455 2.21708e+18 0 0 3.41166e+13 1.36466e+14 1.70583e+13 
2893 0 144.25 2.21459e+18 141.164 138.467 136.3 7476.95 -0.201575 0.477059 2.21439e+18 0 0 1.70583e+13 1.70583e+14 1.70583e+13 
2897 0 143.97 2.21029e+18 153.168 137.618 136.549 7476.4 0.190516 -0.803594 2.20971e+18 0 0 1.19408e+14 4.26457e+14 3.41166e+13 
2901 0 144.624 2.22034e+18 156.874 138.101 136.884 7476.53 -0.457149 -1.15956 2.21942e+18 0 0 1.36466e+14 7.84681e+14 0 
2905 0 144.983 2.22585e+18 174.483 141.285 137.063 7475.3 -0.0866759 0.319675 2.22445e+18 0 0 3.07049e+14 1.04056e+15 5.11749e+13 
2909 0 144.108 2.21241e+18 186.433 142.845 137.754 7474.33 0.196085 -0.815781 2.20995e+18 0 0 5.62923e+14 1.82524e+15 6.82331e+13 
3017 0 144.326 2.21575e+18 141.115 137.582 136.425 7477.51 -0.810256 -0.0632446 2.21567e+18 0 0 1.70583e+13 6.82331e+13 0 
3021 0 144.416 2.21713e+18 139.59 138.3 136.747 7477.12 -1.40334 -0.0136842 2.21707e+18 0 0 1.70583e+13 5.11749e+13 0 
3025 0 143.983 2.2105e+18 144.304 137.384 136.678 7477.24 0.130466 -0.349435 2.21021e+18 0 0 5.11749e+13 2.38816e+14 0 
3029 0 144.098 2.21225e+18 146.228 137.679 136.507 7476.35 -0.656851 0.474329 2.212e+18 0 0 1.70583e+13 2.38816e+14 0 
3033 0 144 2.21075e+18 148.775 138.501 136.812 7476.32 -0.397176 -0.305698 2.21028e+18 0 0 1.19408e+14 3.41166e+14 1.70583e+13 
3037 0 144.051 2.21154e+18 153.526 138.201 136.93 7476.13 0.35848 -0.197712 2.21092e+18 0 0 1.0235e+14 4.9469e+14 1.70583e+13 
3041 0 144.524 2.21881e+18 170.83 140.335 136.888 7475.79 -0.0444993 -0.106447 2.21756e+18 3.41166e+13 0 2.38816e+14 9.72322e+14 0 
3045 0 144.546 2.21913e+18 189.769 141.815 137.61 7475.2 0.458383 -0.220208 2.21669e+18 1.70583e+13 0 5.9704e+14 1.757e+15 6.82331e+13 
3153 0 144.201 2.21384e+18 139.447 137.426 136.583 7477.59 -0.274646 0.82153 2.21379e+18 0 0 0 5.11749e+13 0 
3157 0 144.41 2.21705e+18 143.819 137.089 136.403 7477.51 -0.20656 -0.0344315 2.21691e+18 0 0 0 1.36466e+14 0 
3161 0 143.836 2.20823e+18 141.088 138.102 136.512 7476.95 -0.692236 0.553939 2.20809e+18 0 0 3.41166e+13 6.82331e+13 3.41166e+13 
3165 0 143.942 2.20987e+18 139.784 137.814 136.576 7477.27 -0.85795 1.23719 2.20975e+18 0 0 1.70583e+13 1.0235e+14 0 
3169 0 144.286 2.21514e+18 146.483 138.368 136.625 7476.68 -0.421793 0.164567 2.21485e+18 0 0 1.70583e+13 2.55874e+14 1.70583e+13 
3173 0 144.243 2.21449e+18 155.028 139.972 136.92 7477.02 -0.488343 0.866502 2.21381e+18 1.70583e+13 0 8.52914e+13 5.45865e+14 3.41166e+13 
3177 0 143.802 2.20772e+18 163.673 140.056 136.835 7476.25 -0.498659 1.06008 2.20668e+18 3.41166e+13 0 2.04699e+14 8.01739e+14 0 
3181 0 144.476 2.21805e+18 181.992 143.339 137.483 7474.07 0.263211 0.218514 2.21601e+18 0 0 4.77632e+14 1.51819e+15 5.11749e+13 
3185 0 144.491 2.21829e+18 211.755 146.114 138.078 7473.21 0.316044 0.57304 2.21473e+18 3.41166e+13 0 8.52914e+14 2.62698e+15 5.11749e+13 
3289 0 144.31 2.21551e+18 141.096 138.415 136.589 7477.12 -0.290902 1.12037 2.21544e+18 0 0 1.70583e+13 5.11749e+13 0 
3293 0 144.26 2.21475e+18 137.354 137.752 136.746 7477.64 0.0128322 0.572987 2.21473e+18 0 0 1.70583e+13 0 0 
3297 0 144.219 2.21411e+18 142.831 137.651 136.714 7477.67 -0.329244 -0.376371 2.21396e+18 0 0 0 1.53525e+14 0 
3301 0 143.688 2.20596e+18 141.437 138.202 136.328 7477.35 -0.210469 1.21882 2.20582e+18 0 0 3.41166e+13 1.0235e+14 0 
3305 0 144.04 2.21137e+18 144.994 139.049 136.606 7477.58 -0.716572 0.53374 2.21115e+18 0 0 1.70583e+13 2.04699e+14 0 
3309 0 144.24 2.21444e+18 150.651 138.032 136.598 7477.32 0.205717 -0.651655 2.21388e+18 0 0 1.0235e+14 4.43515e+14 1.70583e+13 
3313 0 144.182 2.21355e+18 158.452 139.765 136.933 7476.17 0.385131 0.861704 2.21277e+18 1.70583e+13 0 1.53525e+14 6.14098e+14 0 
3317 0 143.957 2.21009e+18 172.072 140.761 137.185 7475.07 -0.00287181 0.839885 2.20869e+18 3.41166e+13 0 1.87641e+14 1.17702e+15 0 
3321 0 144.517 2.21869e+18 198.059 145.059 138.025 7473.64 1.06986 -0.0328706 2.21604e+18 1.70583e+13 0 5.9704e+14 1.97876e+15 5.11749e+13 
3429 0 144.097 2.21224e+18 138.105 137.649 136.369 7477.52 0.124821 -0.243025 2.2122e+18 0 0 0 3.41166e+13 0 
3433 0 144.701 2.22152e+18 139.101 137.019 136.45 7476.24 -0.950956 1.44091 2.22148e+18 0 0 0 3.41166e+13 0 
3437 0 144.439 2.21749e+18 140.805 137.488 136.792 7477.41 -0.0854039 0.268388 2.21732e+18 0 0 1.70583e+13 1.53525e+14 0 
3441 0 143.977 2.2104e+18 140.974 139.171 136.795 7476.99 0.248978 -0.208084 2.21017e+18 1.70583e+13 0 8.52914e+13 1.19408e+14 0 
3445 0 144.738 2.22208e+18 147.997 138.119 136.43 7476.98 -0.644285 0.744354 2.22172e+18 0 0 6.82331e+13 2.89991e+14 0 
3449 0 144.496 2.21836e+18 157.991 138.275 136.813 7476.35 -0.399689 -0.0454715 2.21747e+18 0 0 1.70583e+14 7.16448e+14 0 
3453 0 143.999 2.21074e+18 162.445 139.775 137.01 7475.21 -0.00393193 -0.177698 2.20964e+18 0 0 1.87641e+14 8.52914e+14 5.11749e+13 
3457 0 144.273 2.21495e+18 190.081 142.104 137.202 7474.82 0.810549 1.64534 2.21258e+18 0 0 5.79982e+14 1.70583e+15 8.52914e+13 
3565 0 144.27 2.2149e+18 138.605 137.693 136.349 7477.28 -0.104102 -0.0490565 2.21486e+18 0 0 0 1.70583e+13 1.70583e+13 
3569 0 144.779 2.22271e+18 140.002 137.727 136.571 7476.94 -0.43887 -0.0669513 2.22261e+18 0 0 0 1.0235e+14 0 
3573 0 144.639 2.22056e+18 142.126 138.675 136.788 7476.98 0.310356 0.502868 2.22039e+18 1.70583e+13 0 3.41166e+13 1.19408e+14 0 
3577 0 143.996 2.21069e+18 145.425 138.442 136.678 7476.39 0.346181 0.285961 2.21043e+18 0 0 6.82331e+13 1.87641e+14 0 
3581 0 144.168 2.21333e+18 148.896 139.548 137.186 7476.3 -0.965291 -0.116703 2.21285e+18 1.70583e+13 0 1.0235e+14 3.58224e+14 0 
3585 0 144.38 2.21659e+18 150.34 138.795 136.758 7476.73 0.350838 0.246712 2.21597e+18 0 0 1.0235e+14 5.11749e+14 0 
3589 0 144.474 2.21804e+18 159.742 140.517 137.218 7475.37 0.949763 -0.223602 2.21684e+18 3.41166e+13 0 3.41166e+14 8.18798e+14 0 
3593 0 144.406 2.21698e+18 181.013 141.671 137.545 7474.5 -0.206891 -0.147179 2.21517e+18 0 0 4.09399e+14 1.39878e+15 0 
3701 0 144.211 2.21399e+18 137.739 137.916 136.618 7477.79 0.0105196 -0.526664 2.21396e+18 0 0 0 3.41166e+13 0 
3705 0 144.613 2.22017e+18 143.09 137.135 136.127 7477.3 -0.276836 -0.328152 2.22002e+18 0 0 0 1.53525e+14 0 
3709 0 144.632 2.22046e+18 144.385 138.005 136.428 7477.04 0.175353 0.609388 2.22026e+18 0 0 0 2.04699e+14 0 
3713 0 143.897 2.20917e+18 145.546 138.113 136.619 7476.49 0.057308 0.0936538 2.20883e+18 1.70583e+13 0 6.82331e+13 2.55874e+14 0 
3717 0 144.752 2.2223e+18 147.141 138.812 137.099 7476.87 -0.786468 0.387802 2.22189e+18 1.70583e+13 0 1.19408e+14 2.72933e+14 0 
3721 0 144.019 2.21104e+18 151.028 140.582 137.041 7475.94 0.509462 0.214021 2.21016e+18 0 0 2.89991e+14 5.9704e+14 0 
3725 0 143.803 2.20773e+18 158.922 138.078 136.854 7476.69 0.489929 0.425754 2.20686e+18 3.41166e+13 0 1.19408e+14 7.16448e+14 0 
3729 0 143.906 2.2093e+18 185.48 140.538 137.367 7474.45 -0.0793497 0.379636 2.20722e+18 0 0 3.24107e+14 1.73994e+15 1.70583e+13 