ITEM: TIMESTEP
20000
ITEM: NUMBER OF CELLS
10393
ITEM: BOX BOUNDS oo ao pp
-10 10
0 10
-0.5 0.5
ITEM: CELLS id proc f_avg_n f_avg_nrho f_avg_temp_tra f_avg_temp_rot f_avg_temp_vib f_avg_vel[1] f_avg_vel[2] f_avg_vel[3] f_avg_nrho_CO2 f_avg_nrho_O2 f_avg_nrho_C2 f_avg_nrho_CO f_avg_nrho_O f_avg_nrho_C 
1 0 145.451 2.23304e+18 137.684 137.719 136.474 7478.81 6.04394 0.0456367 2.23304e+18 0 0 0 0 0 
5 0 154.096 2.36575e+18 139.334 137.192 136.262 7477.26 25.5635 -0.81418 2.36575e+18 0 0 0 0 0 
9 0 160.574 2.46521e+18 146.679 137.757 137.043 7476.66 33.2796 -0.0595576 2.46497e+18 0 0 4.38642e+13 1.97389e+14 0 
13 0 163.699 2.51318e+18 145.817 138.697 136.558 7477.67 34.1606 -0.539648 2.51271e+18 2.19321e+13 0 4.38642e+13 3.94777e+14 0 
17 0 166.324 2.55349e+18 150.114 137.86 136.541 7476.96 32.3734 0.244256 2.55285e+18 2.19321e+13 0 4.38642e+13 5.70234e+14 0 
21 0 166.029 2.54895e+18 150.091 140.492 137.009 7476.03 28.3502 -0.387343 2.54805e+18 0 0 3.28981e+14 5.70234e+14 0 
25 0 164.454 2.52478e+18 168.702 143.194 137.318 7475.81 22.8014 1.11062 2.52293e+18 2.19321e+13 0 3.50913e+14 1.46945e+15 0 
29 0 162.34 2.49232e+18 177.092 144.481 136.434 7475.07 17.8936 0.0683324 2.49006e+18 0 0 5.04438e+14 1.7107e+15 4.38642e+13 
33 0 159.707 2.4519e+18 239.132 155.831 138.531 7470.39 16.0332 -1.23815 2.44742e+18 0 0 1.14047e+15 3.09242e+15 2.41253e+14 
141 0 144.377 2.21654e+18 141.629 137.906 136.301 7476.88 0.0102536 0.0580181 2.21639e+18 0 0 0 1.53525e+14 0 
145 0 143.679 2.20582e+18 147.181 137.478 136.709 7476.64 0.557388 -0.338843 2.20558e+18 0 0 0 2.19321e+14 2.19321e+13 
149 0 144.33 2.21582e+18 146.667 137.012 136.521 7476.72 -0.296416 0.0971844 2.2156e+18 0 0 2.19321e+13 1.97389e+14 0 
153 0 144.723 2.22185e+18 146.805 138.806 136.687 7476.53 0.207839 1.20953 2.22137e+18 0 0 1.53525e+14 3.28981e+14 0 
157 0 144.084 2.21205e+18 166.634 141.344 136.684 7475.18 1.09082 -0.186937 2.21067e+18 0 0 2.63185e+14 1.0966e+15 2.19321e+13 
161 0 145.676 2.23648e+18 179.928 139.51 137.316 7475.01 3.23066 -0.385383 2.23497e+18 0 0 3.07049e+14 1.1624e+15 4.38642e+13 
165 0 147.031 2.25729e+18 194.134 142.536 137.939 7473.54 4.42933 -0.474125 2.25501e+18 2.19321e+13 0 5.48302e+14 1.55718e+15 1.53525e+14 
169 0 146.823 2.25409e+18 239.868 148.285 138.626 7470.51 6.02555 0.887978 2.2492e+18 0 0 1.1624e+15 3.61879e+15 1.0966e+14 
277 0 144.1 2.21229e+18 144.183 138.679 136.05 7478.13 -1.05715 0.101612 2.21216e+18 0 0 4.38642e+13 8.77283e+13 0 
281 0 143.954 2.21005e+18 150.108 139.041 136.1 7476.82 0.376751 -0.528478 2.20979e+18 0 0 8.77283e+13 1.53525e+14 2.19321e+13 
285 0 144.463 2.21786e+18 154.331 138.009 136.407 7476.56 -0.888127 1.47529 2.21744e+18 0 0 8.77283e+13 3.28981e+14 0 
289 0 143.526 2.20347e+18 147.532 140.16 136.429 7477.42 -0.0481715 0.744718 2.20297e+18 0 0 2.19321e+14 2.85117e+14 0 
293 0 144.34 2.21597e+18 145.664 138.833 136.447 7477.21 -0.362867 0.496289 2.21551e+18 0 0 1.31592e+14 3.28981e+14 0 
297 0 144.206 2.21391e+18 163.891 139.659 136.232 7475.72 0.404757 -0.400512 2.2124e+18 0 0 2.63185e+14 1.25013e+15 0 
301 0 143.8 2.20768e+18 180.473 142.457 137.082 7475.24 1.17344 0.1188 2.20536e+18 0 0 4.82506e+14 1.82036e+15 2.19321e+13 
305 0 144.283 2.2151e+18 222.894 147.68 138.897 7471.31 0.957059 0.625482 2.21135e+18 0 0 1.05274e+15 2.60992e+15 8.77283e+13 
413 0 144.561 2.21937e+18 148.736 137.122 136.532 7476.47 0.0692329 -0.310316 2.21915e+18 0 0 0 1.31592e+14 8.77283e+13 
417 0 144.801 2.22306e+18 142.719 138.104 136.615 7476.7 0.181252 0.214482 2.2229e+18 0 0 2.19321e+13 1.31592e+14 0 
421 0 144.447 2.21762e+18 143.376 138.61 136.661 7477.05 -0.307714 -0.474078 2.21746e+18 0 0 4.38642e+13 1.0966e+14 0 
425 0 144.571 2.21953e+18 147.709 137.919 136.653 7475.95 0.0691011 -0.671294 2.21913e+18 0 0 4.38642e+13 3.28981e+14 2.19321e+13 
429 0 143.581 2.20433e+18 166.821 140.654 136.709 7475.31 0.625173 -0.244569 2.20325e+18 0 0 2.63185e+14 8.11487e+14 0 
433 0 144.944 2.22525e+18 167.455 140.719 137.336 7476.56 -0.378894 0.0434835 2.22389e+18 0 0 3.72845e+14 9.65011e+14 2.19321e+13 
437 0 144.77 2.22258e+18 194.579 142.459 137.725 7473.88 -0.162135 0.598043 2.22043e+18 0 0 5.2637e+14 1.60104e+15 2.19321e+13 
441 0 143.554 2.20391e+18 221.05 142.181 137.761 7472.77 -0.0419596 -0.22383 2.20077e+18 0 0 5.70234e+14 2.54412e+15 2.19321e+13 
445 0 144.913 2.22477e+18 313.981 149.306 138.472 7467.86 -0.127321 0.434167 2.2176e+18 0 0 1.66684e+15 5.37336e+15 1.31592e+14 
549 0 144.59 2.21981e+18 142.235 137.504 136.591 7477.34 -0.784835 0.079244 2.21975e+18 0 0 2.19321e+13 4.38642e+13 0 
553 0 143.909 2.20935e+18 140.621 136.81 136.27 7477.36 0.241189 0.39021 2.20917e+18 0 0 2.19321e+13 1.31592e+14 2.19321e+13 
557 0 144.473 2.21801e+18 140.28 137.447 136.243 7476.25 0.202796 1.08294 2.21777e+18 0 0 6.57962e+13 1.75457e+14 0 
561 0 144.783 2.22277e+18 141.262 137.684 136.675 7477.15 0.092553 0.0945164 2.22251e+18 0 0 8.77283e+13 1.53525e+14 2.19321e+13 
565 0 144.591 2.21983e+18 151.315 138.447 136.69 7476.3 0.108289 -0.770548 2.21915e+18 0 0 1.75457e+14 5.04438e+14 0 
569 0 144.39 2.21674e+18 160.191 139.532 136.827 7476.2 0.223339 -0.161126 2.21584e+18 0 0 2.63185e+14 5.70234e+14 6.57962e+13 
573 0 144.971 2.22567e+18 181.64 140.478 136.789 7475.27 0.739021 0.736977 2.22374e+18 0 0 3.72845e+14 1.55718e+15 0 
577 0 144.689 2.22132e+18 196.3 141.792 137.791 7473.79 -0.55189 -0.461033 2.21858e+18 2.19321e+13 0 4.82506e+14 2.17128e+15 6.57962e+13 
581 0 144.327 2.21578e+18 267.994 149.381 139.422 7469.69 0.216812 -0.175418 2.20981e+18 2.19321e+13 0 1.38172e+15 4.43028e+15 1.31592e+14 
689 0 144.619 2.22025e+18 140.031 137.672 136.961 7477.49 -1.03035 -0.970623 2.22018e+18 0 0 2.19321e+13 4.38642e+13 0 
693 0 144.273 2.21494e+18 147.265 138.467 136.61 7476.94 0.00775837 1.07311 2.2147e+18 0 0 2.19321e+13 1.97389e+14 2.19321e+13 
697 0 143.944 2.2099e+18 146.551 140.249 136.354 7477.29 -0.271615 0.248756 2.20946e+18 0 0 8.77283e+13 3.28981e+14 2.19321e+13 
701 0 143.626 2.20501e+18 160.825 137.821 137.075 7475.68 -0.668413 0.396745 2.20437e+18 0 0 8.77283e+13 5.48302e+14 0 
705 0 144.397 2.21685e+18 152.636 139.718 137.224 7475.81 -0.544723 -0.575926 2.21604e+18 0 0 2.41253e+14 5.2637e+14 4.38642e+13 
709 0 144.777 2.22268e+18 173.342 139.505 136.734 7475.91 -0.447458 0.490277 2.22117e+18 0 0 3.28981e+14 1.1624e+15 2.19321e+13 
713 0 144.62 2.22027e+18 203.556 141.601 137.88 7473.43 0.234103 -0.011125 2.21755e+18 0 0 4.82506e+14 2.12741e+15 1.0966e+14 
717 0 144.641 2.2206e+18 241.974 147.039 137.989 7470.4 0.30402 0.427707 2.21641e+18 2.19321e+13 0 9.86944e+14 3.09242e+15 8.77283e+13 
825 0 144.056 2.21161e+18 140.78 137.13 136.656 7477.59 0.165123 -0.47963 2.21152e+18 0 0 2.19321e+13 6.57962e+13 0 
829 0 144.484 2.21819e+18 144.124 137.468 136.027 7476.48 -0.894036 0.115348 2.21801e+18 0 0 2.19321e+13 1.53525e+14 0 
833 0 144.563 2.21939e+18 147.936 137.521 136.992 7477.02 -0.237512 -0.119732 2.21911e+18 0 0 0 2.85117e+14 0 
837 0 143.906 2.20931e+18 147.057 137.888 137.097 7477.39 0.333006 0.247459 2.209e+18 0 0 6.57962e+13 2.41253e+14 0 
841 0 144.391 2.21676e+18 153.447 139.392 136.585 7476.24 -0.895566 0.324824 2.216e+18 0 0 1.75457e+14 5.92166e+14 0 
845 0 143.966 2.21023e+18 162.352 141.034 137.172 7476.17 0.62644 0.0264995 2.2092e+18 0 0 2.19321e+14 8.11487e+14 0 
849 0 144.064 2.21174e+18 198.122 140.958 136.914 7473.87 0.50372 0.799472 2.2095e+18 2.19321e+13 0 4.1671e+14 1.68877e+15 1.0966e+14 
853 0 143.913 2.20942e+18 234.084 143.983 138.095 7471.96 -0.0483204 -0.0492388 2.2052e+18 0 0 1.00888e+15 3.11436e+15 8.77283e+13 
961 0 144.691 2.22137e+18 141.122 137.089 136.225 7477.27 0.214929 -0.127035 2.22128e+18 0 0 0 6.57962e+13 2.19321e+13 
965 0 143.826 2.20808e+18 143.249 137.404 136.771 7476.77 0.713866 -0.385926 2.20788e+18 0 0 2.19321e+13 1.53525e+14 2.19321e+13 
969 0 143.853 2.20849e+18 145.445 137.148 136.817 7477.01 0.172732 0.233982 2.20828e+18 0 0 2.19321e+13 1.97389e+14 0 
973 0 144.549 2.21918e+18 147.366 138.922 136.75 7476.32 0.0195569 0.037349 2.21882e+18 0 0 4.38642e+13 2.85117e+14 2.19321e+13 
977 0 144.597 2.21992e+18 153.824 138.209 136.825 7476.8 0.571306 -0.5017 2.21929e+18 0 0 8.77283e+13 5.04438e+14 4.38642e+13 
981 0 143.623 2.20496e+18 159.839 139.127 137.271 7475.58 -0.450175 0.52346 2.204e+18 0 0 2.41253e+14 7.23759e+14 0 
985 0 144.087 2.21209e+18 183.004 142.398 137.277 7474.7 -0.129266 0.23211 2.21025e+18 2.19321e+13 0 4.82506e+14 1.33786e+15 0 
989 0 144.813 2.22323e+18 216.342 143.928 137.838 7472.54 0.0189237 0.814675 2.22007e+18 2.19321e+13 0 7.23759e+14 2.3248e+15 8.77283e+13 
993 0 144.35 2.21613e+18 268.526 150.493 138.855 7469.63 0.831572 0.719228 2.21007e+18 8.77283e+13 0 1.51331e+15 4.29869e+15 1.53525e+14 
1097 0 144.056 2.21161e+18 142.26 137.632 136.248 7477.52 -0.138302 0.379205 2.21152e+18 0 0 0 8.77283e+13 0 
1101 0 143.953 2.21003e+18 138.149 136.556 136.693 7477.47 -0.11882 0.818304 2.20999e+18 0 0 0 4.38642e+13 0 
1105 0 143.901 2.20924e+18 142.812 138.866 136.434 7476.86 0.0493892 0.00862836 2.20904e+18 0 0 2.19321e+13 1.75457e+14 0 
1109 0 143.886 2.209e+18 144.401 137.73 136.66 7477.16 -0.211507 0.294833 2.20865e+18 0 0 6.57962e+13 2.85117e+14 0 
1113 0 144.21 2.21398e+18 151.701 138.58 136.856 7478.44 -0.290915 0.846278 2.21352e+18 0 0 1.31592e+14 3.28981e+14 0 
1117 0 144.969 2.22562e+18 161.02 137.969 136.299 7476.95 0.592762 -0.785789 2.22477e+18 0 0 1.31592e+14 7.23759e+14 0 
1121 0 144.676 2.22113e+18 172.194 138.941 136.778 7476.18 -0.471146 -0.00489457 2.21968e+18 0 0 3.50913e+14 1.07467e+15 2.19321e+13 
1125 0 143.941 2.20985e+18 207.213 143.715 137.549 7474.24 0.0462845 1.13708 2.20753e+18 2.19321e+13 0 5.2637e+14 1.7765e+15 0 
1129 0 144.979 2.22578e+18 253.448 147.02 138.01 7470.56 0.68683 0.0122026 2.2208e+18 6.57962e+13 0 1.14047e+15 3.70652e+15 6.57962e+13 
1237 0 144.979 2.22578e+18 141.651 137.92 136.731 7477.47 -1.83761 -0.0885115 2.22569e+18 0 0 0 6.57962e+13 2.19321e+13 
1241 0 144.133 2.21279e+18 140.105 138.421 136.499 7477.33 -0.155332 -0.667694 2.21257e+18 0 0 8.77283e+13 1.31592e+14 0 
1245 0 144.707 2.22161e+18 146.101 138.251 136.34 7477.63 0.199495 0.663309 2.22137e+18 0 0 2.19321e+13 2.19321e+14 0 
1249 0 144.43 2.21736e+18 143.28 138.139 136.891 7476.59 -1.17468 -0.0258858 2.21709e+18 0 0 6.57962e+13 1.97389e+14 0 
1253 0 144.374 2.2165e+18 152.456 137.93 136.506 7476.44 0.383234 -0.5372 2.21593e+18 0 0 6.57962e+13 4.60574e+14 4.38642e+13 
1257 0 143.867 2.20871e+18 168.744 140.572 136.612 7475.41 0.224835 0.497002 2.20722e+18 2.19321e+13 0 3.72845e+14 1.03081e+15 6.57962e+13 
1261 0 145.164 2.22863e+18 198.799 143.417 137.398 7474.35 0.122083 0.630923 2.22644e+18 0 0 5.92166e+14 1.57911e+15 2.19321e+13 
1265 0 144.569 2.21948e+18 247.142 142.922 138.582 7471.8 -0.581665 0.607479 2.21551e+18 0 0 1.05274e+15 2.89503e+15 2.19321e+13 
1373 0 144.146 2.21299e+18 144.459 136.887 136.984 7477.41 0.094361 0.279528 2.2129e+18 0 0 4.38642e+13 4.38642e+13 0 
1377 0 144.411 2.21707e+18 143.062 137.373 136.502 7476.81 0.237958 0.351863 2.21698e+18 0 0 2.19321e+13 6.57962e+13 0 
1381 0 144.774 2.22264e+18 145.915 136.611 136.4 7476.57 -0.810141 0.216936 2.22244e+18 0 0 0 1.97389e+14 0 
1385 0 144.563 2.21939e+18 146.526 138.562 136.586 7477.2 -0.0792501 0.834422 2.21909e+18 0 0 6.57962e+13 2.19321e+14 2.19321e+13 
1389 0 144.069 2.21181e+18 164.523 138.918 136.948 7476.16 -0.55306 0.137396 2.21084e+18 0 0 1.53525e+14 8.11487e+14 0 
1393 0 144.763 2.22247e+18 163.678 140.747 137.131 7475.61 -0.511693 0.473995 2.22126e+18 2.19321e+13 0 3.50913e+14 7.45691e+14 8.77283e+13 
1397 0 144.919 2.22486e+18 187.636 140.898 137.565 7474.85 -0.134816 1.16776 2.22275e+18 0 0 5.2637e+14 1.51331e+15 6.57962e+13 
1401 0 144.7 2.2215e+18 213.973 146.207 138.021 7472.94 0.718004 0.0937272 2.21828e+18 2.19321e+13 0 7.45691e+14 2.3906e+15 6.57962e+13 
1509 0 144.827 2.22345e+18 137.984 137.828 136.198 7477.06 0.115223 -0.499284 2.22343e+18 0 0 0 2.19321e+13 0 
1513 0 144.053 2.21157e+18 138.324 137.239 136.563 7477.43 -1.20769 0.247064 2.2115e+18 0 0 2.19321e+13 4.38642e+13 0 
1517 0 144.183 2.21356e+18 143.622 137.93 136.991 7478.04 0.378737 0.101476 2.21341e+18 0 0 0 1.53525e+14 0 
1521 0 144.589 2.21979e+18 149.862 137.092 136.183 7476.84 0.356892 0.103759 2.21939e+18 0 0 4.38642e+13 3.50913e+14 0 
1525 0 144.12 2.2126e+18 154.535 139.406 136.324 7476.68 -0.868283 0.881034 2.21194e+18 0 0 1.53525e+14 4.82506e+14 2.19321e+13 
1529 0 143.423 2.20189e+18 175.35 141.425 137.435 7475.7 0.100534 0.140363 2.20075e+18 0 0 3.72845e+14 7.01827e+14 6.57962e+13 
1533 0 144.346 2.21606e+18 179.099 139.838 137.018 7475.64 1.10593 0.646237 2.21422e+18 0 0 4.1671e+14 1.40365e+15 2.19321e+13 
1537 0 144.547 2.21915e+18 209.306 142.809 137.689 7473.57 -0.383272 0.0305056 2.21604e+18 2.19321e+13 0 6.79894e+14 2.36866e+15 4.38642e+13 
1541 0 144.846 2.22374e+18 281.1 151.311 139.019 7469.06 1.5304 0.6596 2.2181e+18 0 0 1.44752e+15 4.1013e+15 8.77283e+13 
1645 0 144.03 2.21121e+18 139.376 137.305 136.338 7477.54 -0.276866 -0.180032 2.21117e+18 0 0 0 4.38642e+13 0 
1649 0 144.04 2.21137e+18 140.927 137.697 136.55 7476.06 0.0516695 0.849564 2.21128e+18 0 0 2.19321e+13 6.57962e+13 0 
1653 0 144.277 2.21501e+18 143.562 139.161 136.311 7477.44 -0.249416 -0.82354 2.21479e+18 0 0 4.38642e+13 1.53525e+14 2.19321e+13 
1657 0 144.501 2.21845e+18 147.099 138.682 136.346 7476.93 -0.482354 -0.700883 2.21812e+18 0 0 4.38642e+13 2.85117e+14 0 
1661 0 144.264 2.21481e+18 147.654 138.595 136.579 7476.15 -0.272265 0.369995 2.21437e+18 0 0 1.0966e+14 3.07049e+14 2.19321e+13 
1665 0 144.957 2.22545e+18 155.667 138.689 136.598 7477.12 0.391908 -0.893615 2.22497e+18 0 0 1.0966e+14 3.72845e+14 0 
1669 0 144.746 2.2222e+18 166.998 140.158 136.528 7475.6 -0.174195 -0.681726 2.22113e+18 0 0 1.75457e+14 8.55351e+14 4.38642e+13 
1673 0 144.656 2.22082e+18 200.806 144.182 137.386 7473.58 1.29564 -0.20165 2.2183e+18 0 0 4.82506e+14 1.99582e+15 4.38642e+13 
1677 0 144.14 2.2129e+18 226.742 148.806 138.65 7472.23 0.941544 -1.1809 2.20898e+18 0 0 1.0966e+15 2.71958e+15 1.0966e+14 
1785 0 144.511 2.21861e+18 141.007 137.61 136.403 7476.63 0.0525902 -0.412373 2.2185e+18 0 0 2.19321e+13 8.77283e+13 0 
1789 0 144.42 2.2172e+18 140.717 137.836 136.493 7476.39 0.728274 0.563548 2.21707e+18 0 0 4.38642e+13 6.57962e+13 2.19321e+13 
1793 0 144.09 2.21214e+18 145.132 136.833 136.548 7476.46 0.634949 0.434946 2.21185e+18 0 0 0 2.41253e+14 4.38642e+13 
1797 0 144.6 2.21997e+18 145.866 138.657 136.278 7477.03 -0.0133964 0.5101 2.21955e+18 0 0 6.57962e+13 3.50913e+14 0 
1801 0 144.5 2.21843e+18 156.888 138.738 136.241 7476.12 0.902356 0.0438069 2.21775e+18 0 0 6.57962e+13 5.92166e+14 2.19321e+13 
1805 0 145.213 2.22937e+18 174.952 139.93 137.119 7474.77 0.328234 0.464097 2.22795e+18 0 0 2.85117e+14 1.07467e+15 6.57962e+13 
1809 0 144.829 2.22347e+18 178.795 140.843 137.31 7474.45 -0.458672 0.00131117 2.22139e+18 0 0 5.2637e+14 1.49138e+15 6.57962e+13 
1813 0 144.277 2.21501e+18 221.709 148.733 138.601 7471.67 0.520406 -0.0500233 2.21119e+18 0 0 1.0966e+15 2.65378e+15 6.57962e+13 
1921 0 143.85 2.20845e+18 138.361 137.631 136.9 7476.66 -0.634984 -0.0117992 2.20843e+18 0 0 0 2.19321e+13 0 
1925 0 144.457 2.21777e+18 140.102 137.476 136.821 7476.81 -0.814684 -0.528624 2.21771e+18 0 0 0 6.57962e+13 0 
1929 0 144.183 2.21356e+18 140.542 137.696 136.46 7475.77 0.0569027 0.620639 2.21343e+18 0 0 2.19321e+13 1.0966e+14 0 
1933 0 143.57 2.20415e+18 145.649 138.401 136.629 7476.99 -0.800434 -0.279685 2.20391e+18 0 0 4.38642e+13 1.75457e+14 2.19321e+13 
1937 0 144.809 2.22317e+18 160.176 139.659 137.599 7476.13 0.105341 -0.0659949 2.22209e+18 0 0 3.50913e+14 6.3603e+14 8.77283e+13 
1941 0 144.19 2.21367e+18 157.57 139.101 136.388 7476.26 -0.219561 0.0225953 2.21288e+18 2.19321e+13 0 1.97389e+14 5.2637e+14 4.38642e+13 
1945 0 144.566 2.21944e+18 182.24 141.528 137.334 7475.24 0.867099 -0.411939 2.2179e+18 0 0 2.41253e+14 1.18433e+15 1.0966e+14 
1949 0 143.823 2.20803e+18 210.346 145.08 137.981 7472.13 0.771809 -0.16743 2.20457e+18 0 0 8.33419e+14 2.60992e+15 2.19321e+13 
2057 0 144.184 2.21358e+18 139.991 137.599 137.02 7477.52 -0.0318521 -0.63451 2.21352e+18 0 0 0 6.57962e+13 0 
2061 0 144.156 2.21314e+18 141.027 138.327 136.631 7478.19 0.492518 -0.310728 2.21303e+18 0 0 0 1.0966e+14 0 
2065 0 144.481 2.21814e+18 142.279 137.49 136.251 7477.55 -0.778211 0.593838 2.21804e+18 0 0 0 1.0966e+14 0 
2069 0 144.416 2.21714e+18 145.208 138.264 137.302 7477.2 0.219431 -0.0564572 2.21678e+18 0 0 6.57962e+13 2.85117e+14 0 
2073 0 144.38 2.21659e+18 153.501 138.948 136.82 7477.33 0.12301 -0.689992 2.216e+18 0 0 1.75457e+14 3.72845e+14 4.38642e+13 
2077 0 144.684 2.22126e+18 164.924 140.368 137.568 7476.63 -0.862808 0.892938 2.22023e+18 0 0 2.63185e+14 7.45691e+14 2.19321e+13 
2081 0 143.777 2.20733e+18 174.08 141.789 137.571 7475.01 0.287975 -0.17273 2.20562e+18 0 0 3.94777e+14 1.29399e+15 2.19321e+13 
2085 0 144.154 2.21312e+18 197.823 143.47 137.453 7473.33 0.0307136 0.320038 2.21056e+18 2.19321e+13 0 6.14098e+14 1.84229e+15 8.77283e+13 
2089 0 143.951 2.21001e+18 254.584 147.098 138.102 7471.08 1.14372 0.435263 2.2051e+18 2.19321e+13 0 1.05274e+15 3.77232e+15 6.57962e+13 
2193 0 144.216 2.21407e+18 139.182 137.737 136.754 7477.28 -0.118405 0.180972 2.21402e+18 0 0 0 4.38642e+13 0 
2197 0 144.14 2.2129e+18 141.433 137.567 136.377 7477.62 -0.182546 0.75893 2.21282e+18 0 0 0 8.77283e+13 0 
2201 0 143.873 2.2088e+18 145.219 137.052 136.375 7477.08 0.308587 0.122969 2.2086e+18 0 0 0 1.97389e+14 0 
2205 0 144.426 2.21729e+18 143.875 138.068 136.493 7477.14 0.102839 -0.406459 2.21707e+18 0 0 2.19321e+13 1.75457e+14 2.19321e+13 
2209 0 144.069 2.21181e+18 142.789 137.704 136.613 7477.24 0.255942 1.08359 2.21159e+18 4.38642e+13 0 6.57962e+13 8.77283e+13 2.19321e+13 
2213 0 143.777 2.20733e+18 152.204 138.988 137.216 7476.21 0.219294 -0.366202 2.20674e+18 2.19321e+13 0 1.0966e+14 4.38642e+14 2.19321e+13 
2217 0 144.764 2.22249e+18 170.042 140.702 137.154 7476.17 1.13033 0.31921 2.22124e+18 0 0 2.63185e+14 9.65011e+14 2.19321e+13 
2221 0 144.651 2.22075e+18 179.81 143.874 137.526 7475.03 0.362927 1.17431 2.21836e+18 0 0 5.92166e+14 1.66684e+15 1.31592e+14 
2225 0 144.55 2.2192e+18 250.456 147.603 138.296 7471.01 0.726277 -0.539004 2.2151e+18 2.19321e+13 0 1.1624e+15 2.85117e+15 6.57962e+13 
2333 0 144.569 2.21948e+18 141.655 137.401 136.871 7477.9 0.375946 1.15189 2.21939e+18 0 0 2.19321e+13 6.57962e+13 0 
2337 0 144.207 2.21393e+18 140.658 137.28 136.287 7477.23 0.388712 -0.498794 2.21385e+18 0 0 0 8.77283e+13 0 
2341 0 144.266 2.21483e+18 141.111 137.58 137.078 7477.48 -0.132549 -0.198705 2.21468e+18 0 0 4.38642e+13 1.0966e+14 0 
2345 0 144.304 2.21543e+18 149.672 139.325 136.472 7476.4 -0.172168 0.117042 2.21507e+18 0 0 1.0966e+14 2.41253e+14 0 
2349 0 143.897 2.20917e+18 144.913 137.576 137.082 7476.4 -0.120491 -0.549186 2.20887e+18 0 0 6.57962e+13 2.41253e+14 0 
2353 0 143.934 2.20974e+18 160.972 139.105 136.588 7475.84 0.402666 0.572515 2.20876e+18 0 0 2.41253e+14 7.01827e+14 4.38642e+13 
2357 0 144.526 2.21882e+18 174.468 141.533 136.702 7474.91 0.0216883 -0.21442 2.21705e+18 0 0 3.50913e+14 1.33786e+15 8.77283e+13 
2361 0 145.263 2.23014e+18 222.086 145.853 137.482 7472.68 0.727627 -0.425449 2.22676e+18 2.19321e+13 0 8.77283e+14 2.43446e+15 4.38642e+13 
2469 0 143.981 2.21047e+18 137.121 137.746 136.449 7477.53 0.0773664 0.369849 2.21047e+18 0 0 0 0 0 
2473 0 143.817 2.20795e+18 142.363 137.589 135.831 7477.54 -0.155302 -1.32344 2.20775e+18 0 0 2.19321e+13 1.53525e+14 2.19321e+13 
2477 0 144.237 2.21439e+18 147.568 137.935 136.726 7476.84 -0.549671 -0.123371 2.2142e+18 0 0 4.38642e+13 1.53525e+14 0 
2481 0 144.231 2.21431e+18 143.877 137.487 136.735 7477.38 0.414684 -0.585536 2.21393e+18 0 0 6.57962e+13 3.07049e+14 0 
2485 0 143.956 2.21007e+18 152.778 139.566 136.433 7476.96 -0.0935898 0.223912 2.20946e+18 0 0 1.31592e+14 4.82506e+14 0 
2489 0 144.403 2.21694e+18 158.886 139.048 137.05 7476.23 0.371733 0.925787 2.21602e+18 0 0 2.19321e+14 7.01827e+14 0 
2493 0 144.563 2.21939e+18 175.375 140.401 137.117 7475.69 0.269838 0.230978 2.21782e+18 2.19321e+13 0 3.94777e+14 1.14047e+15 2.19321e+13 
2497 0 144.663 2.22093e+18 191.407 142.915 137.637 7473.65 -0.88522 0.419873 2.21845e+18 2.19321e+13 0 4.82506e+14 1.97389e+15 0 
2605 0 144.041 2.21139e+18 141.449 137.383 136.745 7477.65 -0.287946 0.309018 2.21115e+18 0 0 2.19321e+13 1.97389e+14 2.19321e+13 
2609 0 144.634 2.22049e+18 141.329 137.722 136.521 7476.59 -0.859715 0.464202 2.2204e+18 0 0 2.19321e+13 6.57962e+13 0 
2613 0 144.091 2.21216e+18 139.722 137.575 136.16 7476.9 0.712553 0.394342 2.21209e+18 0 0 0 6.57962e+13 0 
2617 0 144.093 2.21218e+18 143.62 137.089 136.865 7478.03 -0.683797 -0.20485 2.21189e+18 0 0 6.57962e+13 1.97389e+14 2.19321e+13 
2621 0 144.149 2.21303e+18 149.502 138.968 136.926 7476.65 0.0875221 -0.767813 2.2126e+18 0 0 8.77283e+13 3.50913e+14 0 
2625 0 145.196 2.22911e+18 163.816 138.824 136.812 7475.6 0.431865 0.459911 2.22823e+18 0 0 1.97389e+14 6.57962e+14 2.19321e+13 
2629 0 144.334 2.21589e+18 181.468 139.515 137.102 7474.92 -0.417157 -0.166546 2.21426e+18 2.19321e+13 0 3.28981e+14 1.2282e+15 4.38642e+13 
2633 0 144.146 2.21299e+18 185.671 141.232 137.156 7474.81 -0.62254 -0.369086 2.2113e+18 0 0 2.41253e+14 1.42559e+15 2.19321e+13 
2637 0 144.751 2.22229e+18 228.674 146.678 138.156 7471.55 0.122935 -0.0277204 2.21786e+18 0 0 1.07467e+15 3.28981e+15 6.57962e+13 
2741 0 144.683 2.22124e+18 140.269 138.177 136.667 7477.49 -0.772502 0.460116 2.22113e+18 0 0 2.19321e+13 8.77283e+13 0 
2745 0 144.273 2.21494e+18 137.747 136.905 137.075 7476.6 -0.264742 0.699947 2.21492e+18 0 0 0 2.19321e+13 0 
2749 0 143.951 2.21001e+18 140.638 136.909 136.274 7476.22 -0.418564 0.812315 2.20988e+18 0 0 0 1.31592e+14 0 
2753 0 143.954 2.21005e+18 142.044 138.461 136.124 7477.16 -0.207032 0.367657 2.2099e+18 0 0 0 1.53525e+14 0 
2757 0 144.831 2.22352e+18 148.891 139.424 136.802 7476.4 0.0407492 0.641157 2.22312e+18 0 0 2.19321e+13 3.50913e+14 2.19321e+13 
2761 0 144.549 2.21918e+18 159.809 140.602 136.935 7476 0.114936 0.102459 2.21847e+18 0 0 2.19321e+14 4.38642e+14 4.38642e+13 
2765 0 143.769 2.2072e+18 162.257 139.008 136.457 7475.33 0.808152 0.503504 2.20617e+18 0 0 1.75457e+14 8.11487e+14 4.38642e+13 
2769 0 144.086 2.21207e+18 189.668 140.526 137.422 7474.03 0.282152 0.254753 2.20994e+18 0 0 4.38642e+14 1.62297e+15 6.57962e+13 
2773 0 144.601 2.21999e+18 216.181 144.05 137.43 7473.28 0.540256 0.506109 2.21659e+18 2.19321e+13 0 6.57962e+14 2.69765e+15 2.19321e+13 
2881 0 144.456 2.21775e+18 139.164 137.935 136.562 7477.88 -0.016612 0.424909 2.21766e+18 0 0 2.19321e+13 4.38642e+13 2.19321e+13 
2885 0 144.064 2.21174e+18 142.39 137.334 136.148 7476.55 -0.514756 -0.220841 2.21163e+18 0 0 2.19321e+13 8.77283e+13 0 
2889 0 144.67 2.22104e+18 141.302 137.45 136.451 7477.47 0.604878 -0.891627 2.22084e+18 0 0 4.38642e+13 1.31592e+14 2.19321e+13 
2893 0 144.081 2.212e+18 141.124 138.244 136.244 7477.23 -0.48423 0.831174 2.21176e+18 0 0 2.19321e+13 1.97389e+14 2.19321e+13 
2897 0 143.881 2.20893e+18 153.926 137.564 136.414 7476.3 0.416863 -1.07128 2.20838e+18 0 0 1.0966e+14 4.38642e+14 0 
2901 0 144.767 2.22253e+18 156.577 136.933 136.944 7476.6 -0.196778 -1.42006 2.2217e+18 0 0 8.77283e+13 7.45691e+14 0 
2905 0 145.123 2.22799e+18 172.829 141.921 137.161 7475.5 -0.662835 0.682495 2.22654e+18 0 0 3.50913e+14 1.03081e+15 6.57962e+13 
2909 0 144.144 2.21297e+18 185.761 143.366 137.842 7474.5 0.168845 -0.867195 2.21049e+18 0 0 5.92166e+14 1.79843e+15 8.77283e+13 
3017 0 144.233 2.21433e+18 141.079 137.917 136.442 7477.41 -1.20855 0.262941 2.21424e+18 0 0 2.19321e+13 6.57962e+13 0 
3021 0 144.516 2.21867e+18 139.312 138.192 136.75 7477.07 -1.95183 -0.160083 2.21863e+18 0 0 0 4.38642e+13 0 
3025 0 143.981 2.21047e+18 143.854 137.766 136.665 7477.04 0.328125 -0.208611 2.21018e+18 0 0 4.38642e+13 2.41253e+14 0 
3029 0 144.04 2.21137e+18 146.461 137.772 136.523 7476.68 -1.07649 0.293328 2.21108e+18 0 0 2.19321e+13 2.63185e+14 0 
3033 0 143.889 2.20904e+18 151.979 138.492 136.929 7476.38 -0.499571 -0.363285 2.20852e+18 0 0 1.31592e+14 3.72845e+14 2.19321e+13 
3037 0 144.379 2.21657e+18 151.802 138.31 136.92 7475.88 0.660699 -0.175544 2.21589e+18 0 0 1.0966e+14 5.70234e+14 0 
3041 0 144.797 2.22299e+18 171.063 140.202 137.041 7475.86 -0.410317 -0.414947 2.22172e+18 2.19321e+13 0 2.63185e+14 9.86944e+14 0 
3045 0 144.376 2.21652e+18 192.717 141.655 137.44 7475.13 0.613813 -0.513113 2.21404e+18 2.19321e+13 0 5.2637e+14 1.84229e+15 8.77283e+13 
3153 0 144.333 2.21586e+18 140.132 137.089 136.807 7477.55 -0.0397016 0.300413 2.2158e+18 0 0 0 6.57962e+13 0 
3157 0 144.324 2.21573e+18 144.168 137.233 136.354 7477.49 -0.343288 0.19215 2.21558e+18 0 0 0 1.53525e+14 0 
3161 0 143.931 2.2097e+18 142.339 138.604 136.367 7476.96 -0.52537 0.713288 2.20955e+18 0 0 4.38642e+13 6.57962e+13 4.38642e+13 
3165 0 143.973 2.21034e+18 139.727 137.722 136.656 7477.47 -1.37733 1.3954 2.21021e+18 0 0 2.19321e+13 1.0966e+14 0 
3169 0 144.319 2.21564e+18 146.892 138.512 136.63 7476.68 -0.141327 0.288856 2.21534e+18 0 0 2.19321e+13 2.85117e+14 0 
3173 0 144.12 2.2126e+18 155.597 140.68 136.801 7477.03 -0.213159 0.951681 2.21189e+18 2.19321e+13 0 8.77283e+13 5.48302e+14 4.38642e+13 
3177 0 144.094 2.2122e+18 165.691 140.217 136.867 7476.3 -0.6895 1.19114 2.21108e+18 4.38642e+13 0 2.19321e+14 8.55351e+14 0 
3181 0 144.411 2.21707e+18 186.551 143.949 137.682 7474.09 0.493254 0.0366293 2.21488e+18 0 0 5.04438e+14 1.64491e+15 4.38642e+13 
3185 0 144.237 2.21439e+18 211.687 145.722 138.175 7473.5 0.591836 0.455407 2.21091e+18 2.19321e+13 0 7.67623e+14 2.65378e+15 4.38642e+13 
3289 0 144.273 2.21494e+18 141.85 138.364 136.65 7477.19 -0.539225 1.02462 2.21485e+18 0 0 2.19321e+13 6.57962e+13 0 
3293 0 144.433 2.2174e+18 137.284 138.271 136.652 7477.75 0.112908 1.03446 2.21738e+18 0 0 2.19321e+13 0 0 
3297 0 144.12 2.2126e+18 144.642 137.697 136.687 7477.64 -0.361516 -0.274992 2.2124e+18 0 0 0 1.97389e+14 0 
3301 0 143.786 2.20746e+18 142.545 138.175 136.197 7477.8 -0.256759 1.14523 2.20729e+18 0 0 4.38642e+13 1.31592e+14 0 
3305 0 144.169 2.21334e+18 144.515 138.985 136.592 7477.63 -0.902766 0.839241 2.21312e+18 0 0 2.19321e+13 1.97389e+14 0 
3309 0 144.29 2.21521e+18 152.642 138.026 136.424 7477.45 -0.227252 -0.75685 2.21459e+18 0 0 1.31592e+14 4.82506e+14 0 
3313 0 143.889 2.20904e+18 162.723 139.265 136.957 7476.18 0.24378 0.575284 2.20817e+18 2.19321e+13 0 1.53525e+14 7.01827e+14 0 
3317 0 144.016 2.21099e+18 178.31 140.473 137.284 7475.01 -0.356034 1.01244 2.20944e+18 4.38642e+13 0 1.97389e+14 1.31592e+15 0 
3321 0 144.341 2.216e+18 203.28 144.791 138.12 7473.7 1.13878 0.322026 2.21334e+18 2.19321e+13 0 5.70234e+14 2.01775e+15 4.38642e+13 
3429 0 144.006 2.21084e+18 138.102 137.375 136.187 7477.58 -0.0552063 -0.255483 2.21082e+18 0 0 0 2.19321e+13 0 
3433 0 144.464 2.21788e+18 139.846 137.215 136.442 7476.34 -0.71112 1.53661 2.21784e+18 0 0 0 4.38642e+13 0 
3437 0 144.441 2.21753e+18 141.679 137.224 136.837 7477.41 -0.26672 0.146586 2.21736e+18 0 0 2.19321e+13 1.53525e+14 0 
3441 0 143.923 2.20957e+18 140.506 139.181 136.87 7477.18 0.209384 -0.0606357 2.20935e+18 2.19321e+13 0 8.77283e+13 1.0966e+14 0 
3445 0 144.58 2.21966e+18 149.383 138.63 136.381 7476.99 -0.716961 0.314529 2.21926e+18 0 0 8.77283e+13 3.07049e+14 0 
3449 0 144.366 2.21637e+18 157.208 138.168 136.801 7476.96 -0.389356 0.102052 2.21543e+18 0 0 1.97389e+14 7.45691e+14 0 
3453 0 144.017 2.21102e+18 161.071 138.814 136.934 7475.93 0.278303 -0.437448 2.21007e+18 0 0 1.53525e+14 7.45691e+14 4.38642e+13 
3457 0 144.476 2.21806e+18 188.655 142.249 137.264 7475.15 0.839141 1.79149 2.21553e+18 0 0 6.14098e+14 1.84229e+15 6.57962e+13 
3565 0 144.044 2.21143e+18 139.167 137.686 136.349 7476.64 0.400052 0.182858 2.21139e+18 0 0 0 2.19321e+13 2.19321e+13 
3569 0 144.709 2.22163e+18 140.676 137.744 136.559 7477.14 -0.620781 -0.188053 2.22152e+18 0 0 0 1.0966e+14 0 
3573 0 144.977 2.22576e+18 143.406 138.628 136.938 7476.91 0.0599253 0.28351 2.22558e+18 2.19321e+13 0 2.19321e+13 1.31592e+14 0 
3577 0 143.983 2.21049e+18 144.309 137.868 136.346 7476.06 0.550677 0.291765 2.21025e+18 0 0 4.38642e+13 1.97389e+14 0 
3581 0 144.204 2.21389e+18 150.311 139.565 137.192 7476.34 -1.51417 -0.204422 2.21343e+18 2.19321e+13 0 8.77283e+13 3.50913e+14 0 
3585 0 144.277 2.21501e+18 150.828 139.092 136.772 7476.73 -0.0879163 -0.0360074 2.21435e+18 0 0 1.0966e+14 5.48302e+14 0 
3589 0 144.72 2.22181e+18 160.428 140.439 137.059 7475.15 0.824054 -0.358733 2.22062e+18 4.38642e+13 0 3.28981e+14 8.11487e+14 0 
3593 0 144.34 2.21597e+18 180.845 141.196 137.437 7474.54 -0.193768 -0.294281 2.21418e+18 0 0 3.72845e+14 1.42559e+15 0 
3701 0 144.271 2.21492e+18 137.323 137.99 136.53 7477.57 -0.0243962 -0.50533 2.21488e+18 0 0 0 4.38642e+13 0 
3705 0 144.633 2.22047e+18 142.503 136.786 136.141 7477.4 -0.277899 -0.208695 2.22032e+18 0 0 0 1.53525e+14 0 
3709 0 144.694 2.22141e+18 146.504 138.224 136.556 7476.86 0.493843 0.353492 2.22115e+18 0 0 0 2.63185e+14 0 
3713 0 143.834 2.20821e+18 144.777 138.331 136.616 7476.33 0.12049 0.18999 2.20786e+18 2.19321e+13 0 8.77283e+13 2.41253e+14 0 
3717 0 144.8 2.22304e+18 146.864 138.461 137.051 7476.97 -0.836468 0.197129 2.22262e+18 2.19321e+13 0 1.0966e+14 2.85117e+14 0 
3721 0 144.101 2.21231e+18 151.593 140.836 137.247 7475.66 0.798571 0.141559 2.21141e+18 0 0 3.07049e+14 5.92166e+14 0 
3725 0 144.096 2.21222e+18 158.291 138.445 136.81 7476.72 0.215226 0.337308 2.21135e+18 4.38642e+13 0 1.53525e+14 6.79894e+14 0 
3729 0 143.977 2.2104e+18 187.928 140.005 137.36 7474.65 -0.208895 0.28323 2.20828e+18 0 0 3.07049e+14 1.79843e+15 2.19321e+13 
3733 0 144.806 2.22312e+18 194.204 143.193 137.624 7474.12 0.516175 -0.285389 2.22051e+18 0 0 7.23759e+14 1.88616e+15 0 
3837 0 144.114 2.21251e+18 143.175 137.905 136.618 7477.5 -0.139864 -0.160086 2.21242e+18 0 0 2.19321e+13 6.57962e+13 0 