ITEM: TIMESTEP
21000
ITEM: NUMBER OF SURFS
134
ITEM: BOX BOUNDS oo ao pp
-10 10
0 10
-0.5 0.5
ITEM: SURFS id f_avg_pressure[1] f_avg_pressure[2] f_avg_pressure[3] f_avg_pressure[4] f_avg_shear[1] f_avg_shear[2] f_avg_shear[3] f_avg_heat_flux[*] f_avg_fdrag[*] 
1 9.06808 9.06214 0.328027 0 0.000203694 -0.00562729 -0.00905609 11205.4 0.0702122 
5 8.99369 8.99364 -0.0298723 0 0.000416534 0.125406 0.00993768 11725.3 0.627397 
9 8.84437 8.83625 -0.378884 0 0.0106351 0.24803 0.00467292 11701.7 1.16565 
13 8.78133 8.75156 -0.722456 0 0.0320382 0.388099 -0.00554194 11849.2 1.70098 
17 8.66215 8.59791 -1.05302 0 0.0622344 0.508143 0.000831802 11870.9 2.21135 
21 8.52056 8.40985 -1.36906 0 0.102312 0.628482 -0.00100314 11714.1 2.6962 
25 8.39297 8.22417 -1.6748 0 0.155482 0.763497 -0.00307096 11720.5 3.16542 
29 8.22172 7.98526 -1.95762 0 0.218523 0.891369 0.00229306 11690.7 3.5954 
33 7.97059 7.66035 -2.20214 0 0.28653 0.996722 0.00704378 11489.2 3.95915 
37 7.7557 7.36337 -2.43551 0 0.369685 1.11768 -0.00167002 11444.1 4.31078 
41 7.45999 6.98456 -2.62058 0 0.461111 1.22899 0.00248373 11281.3 4.58604 
45 7.04095 6.48939 -2.73183 0 0.573936 1.36337 0.00229003 11106.9 4.75749 
49 6.34087 5.74239 -2.68917 0 0.75976 1.62237 0.00823899 11150.6 4.74803 
53 1.94713 0.920204 -1.71597 0 1.24217 0.666128 -0.00439262 5194.02 1.63709 
57 0.137724 -0.0383169 -0.132286 0 0.159955 -0.0463313 -0.000562128 493.88 0.0928247 
61 0.0373081 -0.0200422 -0.0314675 0 0.0409476 -0.0260802 0.00021078 132.087 0.0158639 
65 0.0290523 -0.0156072 -0.0245042 0 0.0344332 -0.0219311 -0.000683514 111.063 0.0136465 
69 0.021475 -0.0115364 -0.0181132 0 0.0252631 -0.0160901 -0.000226271 81.3451 0.00948389 
73 0.0225271 -0.0121018 -0.0190005 0 0.026643 -0.0169694 -0.000197927 87.0895 0.00955248 
77 0.0223888 -0.0120272 -0.0188839 0 0.0257344 -0.0163903 0.00271692 87.6355 0.00853896 
81 0.0192403 -0.010336 -0.0162282 0 0.0257215 -0.0163825 0.000538347 82.929 0.00906164 
85 0.0174869 -0.00939415 -0.0147493 0 0.0239729 -0.0152688 0.00062463 78.9748 0.00809119 
89 0.0162778 -0.00874465 -0.0137295 0 0.0213617 -0.0136058 0.000236061 68.1371 0.00657394 
93 0.0157465 -0.00845935 -0.0132812 0 0.0198684 -0.012655 -0.000811975 57.7687 0.00555681 
97 0.0155724 -0.00836581 -0.0131345 0 0.0207146 -0.0131939 0.00124001 65.9446 0.00559502 
101 0.011902 -0.00639381 -0.0100387 0 0.0158382 -0.0100876 0.00101851 48.9714 0.00395816 
105 0.0113962 -0.00612211 -0.00961217 0 0.0145545 -0.00926991 -0.000141433 42.5109 0.00324753 
109 0.0122196 -0.00656443 -0.0103066 0 0.0149393 -0.00951501 -0.000288927 48.9579 0.00294085 
113 0.0116672 -0.00626768 -0.00984067 0 0.0165597 -0.0105471 -0.00119434 50.3126 0.0032644 
117 0.000585539 -0.000585539 0 0 0 0.000381387 3.72126e-05 1.61965 -0.000165279 
121 0.000138921 -0.000138921 0 0 0 -8.37859e-05 -3.57859e-05 0.170414 -3.02501e-05 
125 0.000314895 -0.000314895 0 0 0 -0.000200137 0.00015949 0.887344 -4.82518e-05 
129 0.000359327 -0.000359327 0 0 0 -4.33873e-05 -4.87114e-05 0.379736 -3.1877e-05 
133 0.00091736 -0.00091736 0 0 0 -0.000736495 0.000756068 2.08501 -2.2195e-05 
2 9.06111 9.05797 0.238235 0 -0.000865735 0.0329163 -0.00611704 11457.8 0.210536 
6 8.93936 8.93858 -0.11803 0 0.0021081 0.15965 0.000570683 11708.1 0.762297 
10 8.82286 8.8106 -0.464954 0 0.0146703 0.277994 -0.00142946 11692.9 1.29948 
14 8.72865 8.69155 -0.803869 0 0.0378933 0.409708 0.00461471 11731.5 1.82533 
18 8.61947 8.54477 -1.13232 0 0.0709959 0.535754 0.00150686 11735.4 2.33254 
22 8.49654 8.37222 -1.44816 0 0.114294 0.660763 -0.00640983 11817.6 2.81784 
26 8.34301 8.15838 -1.74546 0 0.167922 0.784874 -0.00426505 11735.8 3.27159 
30 8.18687 7.93178 -2.0277 0 0.231772 0.906626 0.00347836 11647.3 3.70057 
34 7.93828 7.60728 -2.26837 0 0.306029 1.02631 0.00972756 11449 4.06006 
38 7.69369 7.28028 -2.48805 0 0.394054 1.15304 -0.00186644 11402.6 4.39087 
42 7.37131 6.87562 -2.65746 0 0.482495 1.24835 0.00770176 11236.1 4.63868 
46 6.90375 6.33614 -2.74136 0 0.603151 1.39407 0.00135038 11059.2 4.773 
50 5.75281 5.05426 -2.74758 0 0.950631 1.74871 -0.00506426 10987.1 4.36163 
54 1.15839 0.340874 -1.1071 0 1.01445 0.312345 -0.00286495 3594.16 1.03375 
58 0.0624044 -0.0285676 -0.0554815 0 0.0687251 -0.0353868 -0.000968197 213.241 0.0304258 
62 0.0328802 -0.0176635 -0.0277329 0 0.0364512 -0.0232164 0.000865211 117.762 0.0140974 
66 0.0272988 -0.0146648 -0.0230253 0 0.0331876 -0.0211371 0.000427267 102.251 0.0132696 
70 0.0242201 -0.0130112 -0.0204284 0 0.0291941 -0.0185943 -0.00135234 94.3237 0.0110433 
74 0.0219502 -0.0117919 -0.0185139 0 0.0275125 -0.0175232 0.000411787 85.9193 0.0101937 
78 0.0195614 -0.0105088 -0.0164989 0 0.0239644 -0.0152639 -0.00127561 72.9158 0.00826788 
82 0.0161293 -0.00866503 -0.0136041 0 0.020715 -0.0131943 0.000192428 62.0098 0.00699484 
86 0.0165227 -0.00887621 -0.013936 0 0.0218772 -0.0139341 0.00159264 67.7561 0.00710529 
90 0.0167589 -0.00900304 -0.0141353 0 0.020719 -0.0131963 -0.000356457 64.3697 0.00600476 
94 0.0143454 -0.00770644 -0.0120997 0 0.0192948 -0.0122891 -0.000957874 61.9406 0.00554569 
98 0.0139749 -0.00750742 -0.0117872 0 0.0187364 -0.0119335 0.000271487 61.3877 0.0049922 
102 0.0123727 -0.00664669 -0.0104358 0 0.0151371 -0.00964101 -0.000249821 50.2297 0.00348623 
106 0.0132665 -0.00712685 -0.0111897 0 0.0182073 -0.0115965 0.000930132 57.7745 0.00417325 
110 0.0137724 -0.00739857 -0.0116163 0 0.0192949 -0.0122891 -0.00157189 63.5326 0.00407637 
114 0.0141178 -0.00758423 -0.0119076 0 0.0191744 -0.0122126 -0.000461582 72.5624 0.0035777 
118 0.00031235 -0.00031235 0 0 0 -0.000176334 -0.00016522 0.304008 -8.31286e-05 
122 0.000626165 -0.000626165 0 0 0 -0.000312749 4.96759e-06 0.74456 -0.000126248 
126 0.000302996 -0.000302996 0 0 0 -4.70812e-05 3.10906e-06 0.407737 -4.15414e-05 
130 3.62699e-05 -3.62699e-05 0 0 0 1.54171e-05 7.22373e-05 0.027875 -2.63259e-06 
134 0.00067103 -0.00067103 0 0 0 -0.00040147 -0.000358541 2.83176 -5.41173e-06 
3 9.02278 9.02156 0.148174 0 -0.000879385 0.0535413 -0.00214137 11561.2 0.349526 
7 8.92952 8.92714 -0.206176 0 0.00443709 0.19212 -0.00374697 11752.1 0.899985 
11 8.81999 8.80272 -0.551818 0 0.0196523 0.313498 3.3666e-05 11714.7 1.43562 
15 8.68104 8.63582 -0.884936 0 0.0445521 0.43477 0.0055121 11691.2 1.94903 
19 8.60153 8.51541 -1.21416 0 0.082051 0.575457 0.00133771 11762.8 2.45965 
23 8.45945 8.32106 -1.52393 0 0.127949 0.698636 0.00293839 11676.9 2.93435 
27 8.29743 8.09623 -1.81612 0 0.183976 0.820163 -0.00608868 11667.8 3.37891 
31 8.12331 7.84994 -2.08966 0 0.251664 0.945389 0.000123654 11616.6 3.79403 
35 7.8918 7.54008 -2.32973 0 0.326157 1.05559 0.00300755 11494.9 4.15268 
39 7.62983 7.1951 -2.53867 0 0.416646 1.18086 0.00545567 11386.2 4.46647 
43 7.29753 6.78047 -2.69799 0 0.514237 1.29236 -0.0019581 11231 4.70402 
47 6.79351 6.20801 -2.75905 0 0.652224 1.46754 0.000924727 11139.8 4.81593 
51 4.34693 3.34852 -2.77187 0 1.28463 1.55188 0.00765325 9345.45 3.42166 
55 0.619194 0.0649895 -0.615774 0 0.661971 0.0698652 -0.00288923 2112.47 0.556637 
59 0.0365772 -0.0196495 -0.030851 0 0.0395903 -0.0252158 -0.00156769 128.092 0.0154707 
63 0.0313903 -0.0168629 -0.0264763 0 0.0356127 -0.0226819 0.00102763 113.283 0.0139099 
67 0.0254898 -0.0136933 -0.0214994 0 0.0292573 -0.0186345 0.000994444 91.9778 0.0110175 
71 0.022322 -0.0119917 -0.0188273 0 0.0260526 -0.0165938 0.000350047 84.3099 0.00947601 
75 0.0227913 -0.0122438 -0.0192232 0 0.0273533 -0.017422 -0.000973425 94.052 0.00966935 
79 0.0196608 -0.010562 -0.0165829 0 0.0238394 -0.0151838 -0.000364189 77.5578 0.00804561 
83 0.0190857 -0.0102528 -0.0160979 0 0.0216881 -0.0138132 -0.00132385 70.3852 0.00654094 
87 0.0146612 -0.00787614 -0.012366 0 0.0173233 -0.0110335 7.22714e-05 55.171 0.00508268 
91 0.0176667 -0.00949074 -0.014901 0 0.0222605 -0.0141782 -0.00129033 65.629 0.00643644 
95 0.0164548 -0.00883961 -0.0138788 0 0.0224444 -0.0142951 0.000228458 73.5596 0.00639511 
99 0.0140165 -0.00752972 -0.0118222 0 0.0176038 -0.0112121 -0.0014542 58.5928 0.0043932 
103 0.0121859 -0.00654633 -0.0102782 0 0.0175932 -0.0112053 0.00032509 56.5399 0.00444208 
107 0.0104089 -0.00559188 -0.00877935 0 0.0149578 -0.00952716 -0.00109051 50.5777 0.00344801 
111 0.0128078 -0.00688061 -0.0108026 0 0.017971 -0.0114464 0.000206331 57.0883 0.00370606 
115 0.0118675 -0.00637532 -0.0100096 0 0.0165912 -0.0105673 0.000255509 57.19 0.00306672 
119 0.000419555 -0.000419555 0 0 0 2.3571e-05 -2.12431e-05 0.475704 -0.000104893 
123 0.000520763 -0.000520763 0 0 0 -1.39235e-05 -4.401e-05 0.892298 -9.65965e-05 
127 0.000541455 -0.000541455 0 0 0 -0.000110195 -0.000483297 0.425466 -6.5501e-05 
131 0.000281879 -0.000281879 0 0 -1.1306e-19 -0.000203941 0.000282915 0.466602 -1.59131e-05 
4 9.01192 9.01173 0.0589586 0 -0.000648044 0.0990525 -0.0014892 11669.1 0.488865 
8 8.9082 8.90336 -0.293552 0 0.00739337 0.224239 0.00389208 11754.8 1.036 
12 8.79401 8.77092 -0.636758 0 0.0255455 0.351872 0.00720811 11752.4 1.56748 
16 8.69932 8.64482 -0.97226 0 0.0529683 0.470967 -0.00395936 11794.7 2.08702 
20 8.55587 8.45788 -1.29118 0 0.0922098 0.604019 -0.00139093 11745 2.57724 
24 8.44272 8.28918 -1.60286 0 0.139812 0.723039 -0.00717903 11796.9 3.05582 
28 8.26294 8.04438 -1.88787 0 0.199562 0.850353 0.00818936 11660 3.48871 
32 8.06977 7.77733 -2.15275 0 0.272091 0.982993 -0.00645821 11640.8 3.89 
36 7.82438 7.45249 -2.38355 0 0.348341 1.08913 0.00164723 11473.4 4.23346 
40 7.52398 7.07024 -2.57331 0 0.430969 1.1841 0.00508186 11259.2 4.51113 
44 7.18999 6.65393 -2.72419 0 0.544911 1.33096 0.0017473 11198.6 4.74572 
48 6.57233 5.97927 -2.72833 0 0.697886 1.52945 0.00266477 11071.2 4.78186 
52 3.01504 1.90936 -2.33341 0 1.3832 1.13184 0.0031674 7251.2 2.46583 
56 0.305828 -0.0270056 -0.304633 0 0.350158 -0.0310414 0.00617803 1075.01 0.247471 
60 0.0397891 -0.0213752 -0.03356 0 0.0421182 -0.0268261 -0.00095509 141.579 0.0159173 
64 0.0304047 -0.0163342 -0.0256445 0 0.0340727 -0.0217025 -0.001452 107.291 0.013009 
68 0.0247568 -0.0132999 -0.0208809 0 0.0278844 -0.0177607 0.00149985 91.5409 0.0102004 
72 0.0245475 -0.0131871 -0.0207046 0 0.028579 -0.0182024 7.28055e-05 92.1434 0.010242 
76 0.0192527 -0.0103427 -0.0162387 0 0.0231313 -0.0147328 -0.000436209 77.8956 0.00807525 
80 0.0179384 -0.00963649 -0.0151302 0 0.0223162 -0.0142132 0.00130857 72.4663 0.00757581 
84 0.0167139 -0.00897886 -0.0140973 0 0.0216319 -0.0137778 -0.00080021 70.2193 0.00712985 
88 0.0156272 -0.00839508 -0.0131807 0 0.0212255 -0.013519 0.000416607 69.6845 0.00679396 
92 0.0169312 -0.00909542 -0.0142808 0 0.0231269 -0.0147295 0.00117793 73.3768 0.00695328 
96 0.0169072 -0.00908262 -0.0142604 0 0.0244882 -0.0155968 0.00018917 79.14 0.00711076 
100 0.0124286 -0.0066769 -0.0104829 0 0.0170863 -0.0108829 -2.72949e-05 55.3828 0.00445108 
104 0.0129272 -0.00694477 -0.0109034 0 0.018853 -0.0120082 0.000683964 57.1198 0.00468737 
108 0.0100074 -0.00537603 -0.00844076 0 0.0136859 -0.00871672 -0.0010302 41.3708 0.0029886 
112 0.0121392 -0.00652126 -0.0102388 0 0.0188364 -0.0119971 0.000272957 57.6695 0.00401067 
116 0.0104052 -0.00558975 -0.00877623 0 0.0137224 -0.00874007 0.000795509 45.8908 0.00237228 
120 0.000249441 -0.000249441 0 0 0 1.36717e-05 -6.80338e-05 0.10429 -5.83392e-05 
124 0.000244854 -0.000244854 0 0 0 -0.000116711 5.14243e-05 0.34615 -4.14688e-05 
128 0.000552549 -0.000552549 0 0 0 0.000120317 0.000129017 1.56284 -5.79308e-05 
132 0.000254764 -0.000254764 0 0 0 -7.21451e-05 -0.000207511 0.372374 -1.02731e-05 
