ITEM: TIMESTEP
19000
ITEM: NUMBER OF SURFS
134
ITEM: BOX BOUNDS oo ao pp
-10 10
0 10
-0.5 0.5
ITEM: SURFS id f_avg_pressure[1] f_avg_pressure[2] f_avg_pressure[3] f_avg_pressure[4] f_avg_shear[1] f_avg_shear[2] f_avg_shear[3] f_avg_heat_flux[*] f_avg_fdrag[*] 
1 9.08693 9.08099 0.328709 0 0.000268995 -0.00743132 -0.0054303 11259.3 0.0703587 
5 9.00094 9.00089 -0.0298964 0 0.000425828 0.128204 0.00729821 11752.6 0.627903 
9 8.85063 8.84251 -0.379152 0 0.0108212 0.252371 0.00941193 11733.6 1.16649 
13 8.77954 8.74977 -0.722308 0 0.0320906 0.388733 -0.0041895 11857 1.70064 
17 8.66544 8.60117 -1.05342 0 0.0630626 0.514905 0.00207933 11899 2.2124 
21 8.52088 8.41017 -1.36912 0 0.103336 0.63477 0.00485439 11720.9 2.69663 
25 8.39978 8.23084 -1.67616 0 0.155361 0.762904 0.00416302 11747.9 3.1679 
29 8.22374 7.98722 -1.9581 0 0.217536 0.887343 0.00122631 11692.7 3.59583 
33 7.97581 7.66536 -2.20358 0 0.286587 0.99692 -0.00033272 11506.1 3.96168 
37 7.76191 7.36926 -2.43746 0 0.371561 1.12335 0.00127203 11460.7 4.31511 
41 7.45018 6.97537 -2.61713 0 0.460639 1.22773 0.00341776 11270.5 4.58009 
45 7.04727 6.49521 -2.73428 0 0.574796 1.36541 0.0049305 11124.9 4.76199 
49 6.3375 5.73933 -2.68774 0 0.759156 1.62108 0.0102232 11163.5 4.74535 
53 1.9499 0.921514 -1.71841 0 1.24437 0.667303 -0.0102152 5185.94 1.63974 
57 0.140418 -0.0390665 -0.134874 0 0.161311 -0.046724 -0.00133034 502.222 0.0932873 
61 0.0376274 -0.0202138 -0.0317368 0 0.0415639 -0.0264728 -0.000614728 132.491 0.0162015 
65 0.0285605 -0.0153429 -0.0240893 0 0.0343064 -0.0218504 -0.00154342 110.752 0.0137461 
69 0.0212668 -0.0114245 -0.0179376 0 0.0255758 -0.0162893 -6.84612e-05 79.74 0.00977723 
73 0.022008 -0.0118229 -0.0185626 0 0.0261618 -0.0166629 -0.000525804 84.6642 0.00941955 
77 0.0227197 -0.012205 -0.0191631 0 0.025085 -0.0159767 0.00289803 85.3299 0.00802369 
81 0.0184096 -0.00988981 -0.0155276 0 0.0245914 -0.0156627 0.000130426 81.1869 0.00865883 
85 0.0191263 -0.0102748 -0.0161321 0 0.0260433 -0.0165875 0.000842798 87.4216 0.00875146 
89 0.0160692 -0.00863257 -0.0135535 0 0.0214479 -0.0136607 0.000625574 68.96 0.00667728 
93 0.0148739 -0.00799059 -0.0125453 0 0.0188281 -0.0119924 -0.00105396 55.5551 0.00527847 
97 0.0160349 -0.00861426 -0.0135245 0 0.0215523 -0.0137274 0.00130115 66.7165 0.005862 
101 0.0111425 -0.00598582 -0.00939816 0 0.0158508 -0.0100956 0.000499586 50.0708 0.00413442 
105 0.0114516 -0.00615184 -0.00965887 0 0.0147081 -0.00936778 0.000328505 43.1918 0.00329526 
109 0.0130959 -0.0070352 -0.0110458 0 0.016023 -0.0102053 0.000329684 53.3199 0.0031561 
113 0.0119958 -0.00644423 -0.0101179 0 0.01789 -0.0113944 -0.000998134 54.7609 0.00363035 
117 0.000571787 -0.000571787 0 0 0 0.000199544 0.000241212 1.16752 -0.000161398 
121 0.00015001 -0.00015001 0 0 0 -5.17019e-05 8.7768e-06 0.0853215 -3.26647e-05 
125 0.000419859 -0.000419859 0 0 0 -0.00026685 0.000212653 1.18312 -6.43358e-05 
129 0.00037175 -0.00037175 0 0 0 -5.76634e-05 -5.97465e-05 0.501349 -3.29791e-05 
133 0.00122315 -0.00122315 0 0 0 -0.000981993 0.00100809 2.78001 -2.95933e-05 
2 9.07656 9.07342 0.238641 0 -0.000722683 0.0274773 -0.00477543 11497.5 0.210899 
6 8.9419 8.94112 -0.118063 0 0.00214113 0.162151 -0.00125501 11726.6 0.762517 
10 8.8145 8.80225 -0.464513 0 0.0145472 0.275662 -0.00158331 11693.4 1.29823 
14 8.73176 8.69465 -0.804156 0 0.0378195 0.408911 0.00869153 11751.6 1.82596 
18 8.62536 8.55061 -1.13309 0 0.0710084 0.535848 -0.00188875 11770.6 2.33412 
22 8.49559 8.37128 -1.448 0 0.114317 0.660897 -0.00615848 11817.7 2.81754 
26 8.34038 8.15581 -1.74491 0 0.168494 0.787551 -0.00600433 11748.2 3.2708 
30 8.17783 7.92303 -2.02546 0 0.233295 0.912582 0.00658 11641 3.69729 
34 7.94162 7.61049 -2.26932 0 0.3057 1.02521 0.0106484 11459.2 4.06153 
38 7.69352 7.28012 -2.488 0 0.395755 1.15802 -0.00231038 11405 4.39175 
42 7.37434 6.87844 -2.65855 0 0.482136 1.24743 0.00982717 11247.4 4.64024 
46 6.90251 6.335 -2.74086 0 0.602052 1.39153 -0.00447897 11069.4 4.77146 
50 5.75963 5.06026 -2.75084 0 0.951458 1.75024 -0.00514831 11011.4 4.36658 
54 1.15707 0.340484 -1.10583 0 1.01431 0.312305 -0.00619423 3603.2 1.03335 
58 0.0625659 -0.0286416 -0.0556251 0 0.068553 -0.0352982 0.000142183 211.44 0.0302393 
62 0.0322349 -0.0173168 -0.0271885 0 0.036949 -0.0235334 0.00027021 120.99 0.0147311 
66 0.0265038 -0.0142378 -0.0223549 0 0.0319849 -0.0203711 0.000150599 98.4192 0.0127139 
70 0.0243007 -0.0130545 -0.0204964 0 0.0292181 -0.0186095 -0.00185881 95.4237 0.0110301 
74 0.0214132 -0.0115033 -0.018061 0 0.0274132 -0.01746 0.000228382 86.7202 0.0103164 
78 0.0187947 -0.010097 -0.0158522 0 0.0225066 -0.0143354 -0.00086891 72.365 0.0076252 
82 0.0173492 -0.0093204 -0.014633 0 0.0219322 -0.0139695 -0.000110903 67.7247 0.00732098 
86 0.017146 -0.00921103 -0.0144617 0 0.0212338 -0.0135244 0.000748998 66.7032 0.0065707 
90 0.016819 -0.0090353 -0.014186 0 0.0201235 -0.012817 -0.00148338 62.8446 0.005683 
94 0.0141759 -0.00761536 -0.0119567 0 0.019399 -0.0123555 -0.000944064 63.6633 0.00563913 
98 0.0128552 -0.00690588 -0.0108427 0 0.0172422 -0.0109818 0.00216339 54.2807 0.00459534 
102 0.0123828 -0.00665211 -0.0104443 0 0.0149705 -0.00953491 -0.000266899 49.4646 0.00341561 
106 0.0133355 -0.00716392 -0.0112479 0 0.0177365 -0.0112966 0.00214363 55.6599 0.00398198 
110 0.0137494 -0.00738624 -0.011597 0 0.0194069 -0.0123605 -0.00168259 61.7554 0.00411897 
114 0.0129272 -0.00694463 -0.0109034 0 0.0193939 -0.0123524 -0.00154447 73.9464 0.00384291 
118 0.000376385 -0.000376385 0 0 0 -0.000233736 -0.000227406 0.387264 -0.000100171 
122 0.000211078 -0.000211078 0 0 0 -6.32122e-06 -6.16028e-05 0.313355 -4.25577e-05 
126 0.000403995 -0.000403995 0 0 0 -6.2775e-05 4.14542e-06 0.54365 -5.53885e-05 
130 4.83599e-05 -4.83599e-05 0 0 0 2.05561e-05 9.63164e-05 0.0371666 -3.51012e-06 
134 0.000894706 -0.000894706 0 0 0 -0.000535293 -0.000478054 3.77568 -7.21564e-06 
3 9.03227 9.03106 0.14833 0 -0.000922198 0.0561481 -0.00172063 11592.2 0.349892 
7 8.93278 8.93039 -0.206251 0 0.00447149 0.193609 -0.00549666 11770.4 0.900316 
11 8.81402 8.79675 -0.551444 0 0.0197071 0.314372 -0.000969527 11713.8 1.43466 
15 8.68411 8.63887 -0.885249 0 0.0450896 0.440016 0.00532304 11689.2 1.94983 
19 8.59742 8.51134 -1.21358 0 0.0812635 0.569934 -0.00080025 11771.8 2.45826 
23 8.45362 8.31532 -1.52288 0 0.127681 0.697173 0.00105406 11678.4 2.93227 
27 8.29791 8.0967 -1.81623 0 0.183378 0.817498 -0.00951071 11679.6 3.37886 
31 8.12168 7.84836 -2.08924 0 0.249943 0.938923 0.00160483 11606.4 3.79248 
35 7.89088 7.5392 -2.32946 0 0.327165 1.05886 0.00380318 11501.2 4.15275 
39 7.62501 7.19055 -2.53706 0 0.416899 1.18158 0.002851 11383 4.46395 
43 7.30627 6.78859 -2.70122 0 0.51527 1.29496 -0.00189218 11259.7 4.70992 
47 6.80617 6.21958 -2.76419 0 0.65547 1.47485 0.00328065 11194.3 4.82633 
51 4.35153 3.35206 -2.7748 0 1.28798 1.55593 0.010301 9360.64 3.42674 
55 0.620478 0.0651243 -0.617051 0 0.665309 0.0702175 -0.00263798 2122.5 0.559296 
59 0.0368103 -0.0197748 -0.0310476 0 0.0395295 -0.0251771 -0.00159316 130.148 0.0153264 
63 0.0298093 -0.0160136 -0.0251428 0 0.0340633 -0.0216951 0.00206979 108.774 0.0133906 
67 0.0255256 -0.0137126 -0.0215296 0 0.0292216 -0.0186118 0.000441606 89.7858 0.0109786 
71 0.0229503 -0.0123293 -0.0193573 0 0.0274413 -0.0174783 -0.000353026 87.9597 0.0101844 
75 0.022419 -0.0120437 -0.0189092 0 0.0278429 -0.0177338 -0.000938698 95.2948 0.0101107 
79 0.0200328 -0.0107618 -0.0168966 0 0.0242877 -0.0154692 1.10772e-05 79.4297 0.00819614 
83 0.0178758 -0.00960286 -0.0150775 0 0.0207032 -0.0131859 -0.00115769 66.6303 0.00634934 
87 0.0133396 -0.00716612 -0.0112513 0 0.0147956 -0.00942361 0.000164354 46.0212 0.00410476 
91 0.0178556 -0.00959218 -0.0150602 0 0.0228781 -0.0145715 -0.00146585 67.998 0.00669657 
95 0.0169509 -0.0091061 -0.0142972 0 0.0226659 -0.0144362 0.00124721 73.0233 0.00637398 
99 0.0133004 -0.00714507 -0.0112183 0 0.0162853 -0.0103723 -0.0011247 54.153 0.00398594 
103 0.0112972 -0.00606894 -0.00952868 0 0.0171856 -0.0109457 -9.54186e-05 53.6113 0.00447016 
107 0.0111152 -0.00597128 -0.00937501 0 0.0164908 -0.0105036 -0.00130643 55.7135 0.00387271 
111 0.012366 -0.00664324 -0.01043 0 0.0180963 -0.0115262 -0.000258916 53.2272 0.00382725 
115 0.0112916 -0.00606593 -0.00952388 0 0.0146589 -0.0093365 0.000564575 53.8111 0.00257952 
119 0.000512421 -0.000512421 0 0 0 4.59807e-05 -0.000127472 0.559467 -0.00012811 
123 0.000360097 -0.000360097 0 0 0 -0.000120788 6.62107e-05 0.363842 -6.67946e-05 
127 0.000525421 -0.000525421 0 0 0 -0.000149207 -0.000499565 0.490363 -6.35613e-05 
131 0.000375839 -0.000375839 0 0 -1.50746e-19 -0.000271922 0.00037722 0.622136 -2.12175e-05 
4 9.02637 9.02618 0.0590532 0 -0.000643592 0.098372 0.000770293 11711.1 0.489649 
8 8.898 8.89317 -0.293216 0 0.0074107 0.224765 0.00303628 11757.9 1.03481 
12 8.78933 8.76626 -0.636419 0 0.025241 0.347679 0.0101383 11764.3 1.5666 
16 8.69047 8.63602 -0.97127 0 0.0524748 0.466578 -0.000465535 11791.8 2.08479 
20 8.56022 8.46218 -1.29184 0 0.092334 0.604832 0.00299178 11754.1 2.57857 
24 8.45121 8.29751 -1.60447 0 0.139703 0.722473 -0.00647877 11824.5 3.0588 
28 8.26853 8.04983 -1.88915 0 0.19805 0.843907 0.00720936 11671.5 3.49038 
32 8.06926 7.77684 -2.15262 0 0.272561 0.984692 -0.00322311 11639.2 3.88999 
36 7.82887 7.45677 -2.38492 0 0.350528 1.09597 -0.00284377 11489.5 4.23697 
40 7.5356 7.08116 -2.57729 0 0.431501 1.18556 0.00427394 11288 4.51801 
44 7.18993 6.65387 -2.72417 0 0.54698 1.33602 -0.00224776 11200.5 4.74705 
48 6.57685 5.98339 -2.7302 0 0.698375 1.53053 -1.30692e-05 11107.7 4.78516 
52 3.01514 1.90943 -2.33349 0 1.37926 1.12861 0.0061234 7251.19 2.46293 
56 0.303562 -0.0268056 -0.302377 0 0.348266 -0.0308736 0.00863757 1067.16 0.246174 
60 0.0405934 -0.0218073 -0.0342384 0 0.0419743 -0.0267345 -0.00127299 139.545 0.0154754 
64 0.0306508 -0.0164664 -0.0258521 0 0.0350502 -0.0223251 -0.00140178 108.442 0.0136289 
68 0.0233758 -0.012558 -0.0197161 0 0.0265268 -0.0168959 0.00243683 86.8159 0.00976974 
72 0.0241587 -0.0129782 -0.0203767 0 0.0282286 -0.0179792 -0.000364037 88.6765 0.0101478 
76 0.0196808 -0.0105727 -0.0165997 0 0.023189 -0.0147695 -0.00107353 80.8472 0.00796642 
80 0.0170982 -0.00918515 -0.0144216 0 0.0206242 -0.0131356 0.000987215 66.8404 0.00683456 
84 0.0165259 -0.00887788 -0.0139388 0 0.0212732 -0.0135493 -0.00153021 69.3935 0.00698465 
88 0.0152622 -0.00819898 -0.0128728 0 0.0211207 -0.0134522 5.12155e-05 69.0104 0.00684226 
92 0.0168874 -0.0090719 -0.0142438 0 0.0233665 -0.0148822 0.000960858 74.6538 0.00708371 
96 0.0180921 -0.00971917 -0.0152598 0 0.0251791 -0.0160369 -0.000281965 79.0832 0.00713585 
100 0.0126379 -0.00678932 -0.0106594 0 0.0176531 -0.0112439 -0.000622707 58.6833 0.00464534 
104 0.0130102 -0.00698933 -0.0109733 0 0.0192572 -0.0122656 0.00137483 57.3869 0.00482893 
108 0.0102644 -0.0055141 -0.00865754 0 0.0140483 -0.00894758 -0.00117549 40.5264 0.0030693 
112 0.011286 -0.0060629 -0.00951919 0 0.0163978 -0.010444 -0.000376661 48.4194 0.00336578 
116 0.0118431 -0.00636223 -0.00998907 0 0.0152774 -0.00973045 -0.000226652 50.8637 0.00260052 
120 0.000132665 -0.000132665 0 0 0 8.02055e-05 -1.08145e-05 -0.0458801 -3.10275e-05 
124 0.000251823 -0.000251823 0 0 0 -6.17215e-05 2.01418e-05 0.326684 -4.2649e-05 
128 0.000496039 -0.000496039 0 0 0 0.000571925 -4.26558e-05 1.24969 -5.20061e-05 
132 0.000339686 -0.000339686 0 0 0 -9.61934e-05 -0.000276681 0.496499 -1.36975e-05 
