ITEM: TIMESTEP
14000
ITEM: NUMBER OF SURFS
134
ITEM: BOX BOUNDS oo ao pp
-10 10
0 10
-0.5 0.5
ITEM: SURFS id f_avg_pressure[1] f_avg_pressure[2] f_avg_pressure[3] f_avg_pressure[4] f_avg_shear[1] f_avg_shear[2] f_avg_shear[3] f_avg_heat_flux[*] f_avg_fdrag[*] 
1 9.12121 9.11524 0.329949 0 -0.000101101 0.00279303 0.00275615 11540.9 0.0706212 
5 9.06524 9.06519 -0.0301099 0 0.000431663 0.129961 0.0238855 12090.4 0.632389 
9 8.80553 8.79744 -0.37722 0 0.010907 0.25437 0.0117567 11768 1.16057 
13 8.83364 8.80369 -0.726759 0 0.0330102 0.399873 -0.0122039 12146.8 1.71126 
17 8.72666 8.66193 -1.06086 0 0.0664078 0.542218 -0.0205862 12179.6 2.22877 
21 8.50438 8.39389 -1.36647 0 0.103008 0.632753 0.00339208 11887.9 2.69137 
25 8.42663 8.25715 -1.68152 0 0.160974 0.79047 0.0165955 11965.5 3.17996 
29 8.20319 7.96726 -1.95321 0 0.215856 0.880492 -0.0236679 11805.4 3.58635 
33 8.05236 7.73893 -2.22473 0 0.290586 1.01083 -0.00702142 11813.1 4.00032 
37 7.7938 7.39954 -2.44748 0 0.380377 1.15001 0.0143238 11698.7 4.3369 
41 7.43981 6.96566 -2.61349 0 0.459012 1.22339 0.00215081 11347.5 4.57311 
45 7.03364 6.48264 -2.72899 0 0.582443 1.38358 0.00311417 11170.3 4.75868 
49 6.33425 5.73639 -2.68636 0 0.760425 1.62379 0.0185125 11232.6 4.74413 
53 1.96591 0.929077 -1.73251 0 1.28259 0.687801 -0.0269757 5357.34 1.67441 
57 0.148584 -0.0413383 -0.142717 0 0.173072 -0.0501306 -0.00346639 550.485 0.100529 
61 0.0352405 -0.0189315 -0.0297236 0 0.0402709 -0.0256493 -0.000385873 127.171 0.0161933 
65 0.0262741 -0.0141147 -0.0221609 0 0.0276267 -0.0175959 0.00225835 99.8182 0.00979444 
69 0.01965 -0.0105559 -0.0165739 0 0.0225304 -0.0143497 0.000692904 70.5977 0.00827326 
73 0.0202319 -0.0108687 -0.0170646 0 0.0275482 -0.017546 0.000808481 88.2147 0.0109571 
77 0.0223103 -0.0119851 -0.0188177 0 0.0244051 -0.0155437 -0.00132983 93.124 0.00773716 
81 0.0150562 -0.00808833 -0.0126992 0 0.0214879 -0.0136861 8.02378e-05 65.7654 0.007892 
85 0.0212649 -0.0114237 -0.0179359 0 0.0279638 -0.0178107 0.00214483 105.929 0.00917972 
89 0.014349 -0.00770847 -0.0121027 0 0.0130872 -0.00833558 0.00115936 45.1574 0.00280254 
93 0.0113817 -0.00611448 -0.00959977 0 0.0124588 -0.00793551 -0.000659005 41.2973 0.00309002 
97 0.0197522 -0.0106112 -0.0166598 0 0.0278537 -0.017741 0.000876477 92.5732 0.00781226 
101 0.00983223 -0.00528193 -0.008293 0 0.0141704 -0.0090253 -0.000912371 38.7136 0.00372516 
105 0.0115645 -0.00621249 -0.00975409 0 0.0167987 -0.0106993 -0.00190037 56.1977 0.00407702 
109 0.0146586 -0.00787466 -0.0123638 0 0.0180276 -0.011482 0.00096622 57.8349 0.00356523 
113 0.0140855 -0.00756685 -0.0118804 0 0.0171724 -0.0109374 -7.0915e-05 52.2604 0.00304667 
117 0 0 0 0 0 0 0 0 0 
121 0 0 0 0 0 0 0 0 0 
125 0.000478987 -0.000478987 0 0 0 2.07633e-05 3.07131e-05 1.40334 -7.33959e-05 
129 0 0 0 0 0 0 0 0 0 
133 0.0039257 -0.0039257 0 0 0 0.00016197 -0.00100134 9.85481 -9.49802e-05 
2 9.08206 9.07892 0.238785 0 0.000116554 -0.00443153 -0.0154734 11757.7 0.211046 
6 8.99056 8.98977 -0.118706 0 0.00222291 0.168344 -0.0170353 12002.8 0.766672 
10 8.79292 8.7807 -0.463376 0 0.0149731 0.283731 -0.0027969 11852.4 1.29512 
14 8.72971 8.69261 -0.803967 0 0.0377454 0.408109 -0.00281203 11838.9 1.82552 
18 8.62101 8.5463 -1.13252 0 0.0724992 0.547098 -0.00897251 11932.9 2.33336 
22 8.55908 8.43384 -1.45882 0 0.119012 0.688042 -0.0242937 12146.5 2.83987 
26 8.36276 8.17769 -1.7496 0 0.168204 0.786194 0.0173271 11999.5 3.27928 
30 8.1579 7.90372 -2.02052 0 0.232675 0.91016 0.00489954 11693 3.68825 
34 8.012 7.67794 -2.28943 0 0.311561 1.04486 0.00865135 11706.1 4.09915 
38 7.71979 7.30497 -2.49649 0 0.398456 1.16592 0.00827318 11578.1 4.40751 
42 7.37466 6.87874 -2.65867 0 0.492782 1.27497 0.000626108 11417.4 4.64714 
46 6.91457 6.34607 -2.74565 0 0.608566 1.40659 0.00672548 11232.6 4.78355 
50 5.79471 5.09107 -2.7676 0 0.959751 1.76549 0.00718281 11135.3 4.39499 
54 1.14607 0.337249 -1.09533 0 1.01932 0.313845 -0.0166175 3626.67 1.0347 
58 0.0567385 -0.0259739 -0.0504442 0 0.0590294 -0.0303945 -0.00160431 192.588 0.0250448 
62 0.0249125 -0.0133832 -0.0210124 0 0.0295829 -0.0188418 0.00123624 94.9804 0.0121555 
66 0.0292136 -0.0156934 -0.0246404 0 0.0334949 -0.0213328 -0.00299932 111.272 0.0127528 
70 0.0220083 -0.011823 -0.0185629 0 0.0261022 -0.016625 -0.00488745 78.1806 0.00974414 
74 0.0197292 -0.0105987 -0.0166405 0 0.0245077 -0.0156094 -0.000664366 71.1235 0.009019 
78 0.0170629 -0.00916658 -0.0143915 0 0.0217817 -0.0138737 0.000850157 67.2467 0.0077515 
82 0.014656 -0.00787351 -0.0123614 0 0.0208239 -0.0132636 -0.00106409 61.2673 0.0075175 
86 0.0211313 -0.011352 -0.0178232 0 0.0281639 -0.0179383 0.00245963 90.2063 0.00918803 
90 0.0162586 -0.00873423 -0.0137133 0 0.0176443 -0.011238 -0.00372702 58.2957 0.00456667 
94 0.0161852 -0.00869478 -0.0136514 0 0.0225957 -0.0143915 -0.000543542 90.4157 0.0066524 
98 0.0117954 -0.00633658 -0.00994888 0 0.0191114 -0.0121723 -0.00206626 51.7346 0.00567947 
102 0.0106047 -0.00569692 -0.00894458 0 0.0103254 -0.00657636 -0.00163275 34.0035 0.00190048 
106 0.00898974 -0.00482934 -0.00758241 0 0.00928757 -0.00591538 0.00103078 29.0871 0.00167912 
110 0.0183944 -0.00988156 -0.0155148 0 0.0231297 -0.0147316 0.00299465 80.981 0.00453957 
114 0.0122824 -0.00659821 -0.0103595 0 0.018717 -0.0119212 0.000725384 60.6592 0.00374088 
118 0 0 0 0 0 0 0 0 0 
122 0.000291355 -0.000291355 0 0 0 -0.000167274 -4.29906e-05 0.0745428 -5.87432e-05 
126 0 0 0 0 0 0 0 0 0 
130 0 0 0 0 0 0 0 0 0 
134 0 0 0 0 0 0 0 0 0 
3 9.10048 9.09925 0.14945 0 -0.000547771 0.033351 0.00899812 11890.8 0.352549 
7 8.93681 8.93443 -0.206344 0 0.00470641 0.203781 0.0127274 11911.1 0.900747 
11 8.79273 8.7755 -0.550112 0 0.0194952 0.310992 0.00426105 11846.8 1.43117 
15 8.75909 8.71347 -0.892892 0 0.0459072 0.447995 0.0193826 11904.9 1.96676 
19 8.60553 8.51936 -1.21472 0 0.0827762 0.580544 0.00418665 11933.4 2.46099 
23 8.52168 8.38226 -1.53514 0 0.132833 0.725305 0.0119957 11968.2 2.9573 
27 8.30077 8.0995 -1.81685 0 0.186443 0.831161 -0.00751475 11827.3 3.38125 
31 8.1356 7.86181 -2.09282 0 0.252305 0.947796 0.0164888 11818.8 3.79989 
35 7.97045 7.61523 -2.35295 0 0.334352 1.08212 -0.0185326 11774.4 4.19668 
39 7.64012 7.2048 -2.54209 0 0.424103 1.20199 0.00531229 11594.6 4.47654 
43 7.33327 6.81368 -2.7112 0 0.51654 1.29815 -0.0102308 11441.6 4.72692 
47 6.83132 6.24256 -2.7744 0 0.663208 1.49226 0.00470114 11314.4 4.8479 
51 4.37007 3.36634 -2.78662 0 1.30387 1.57512 0.00879796 9499.53 3.44902 
55 0.625417 0.0656426 -0.621962 0 0.663021 0.069976 -0.0146428 2105.77 0.557941 
59 0.0381793 -0.0205102 -0.0322023 0 0.0382216 -0.024344 -0.00192058 137.744 0.0137411 
63 0.0314607 -0.0169007 -0.0265356 0 0.0395616 -0.025197 -0.000859158 110.741 0.0168115 
67 0.024723 -0.0132814 -0.0208526 0 0.0243964 -0.0155385 0.00200927 79.779 0.00786811 
71 0.0213907 -0.0114914 -0.0180418 0 0.0264667 -0.0168575 9.6388e-05 73.243 0.0100923 
75 0.0239407 -0.0128612 -0.0201927 0 0.0273047 -0.017391 0.00026746 97.0653 0.0092431 
79 0.0183442 -0.00985467 -0.0154724 0 0.0239492 -0.0152537 -0.000440196 82.0148 0.00854072 
83 0.0149211 -0.0080156 -0.0125853 0 0.0172292 -0.0109733 -0.00236686 56.4458 0.00527015 
87 0.0142157 -0.00763676 -0.0119902 0 0.0182296 -0.0116108 0.0013441 55.13 0.00569905 
91 0.0145823 -0.00783377 -0.0122994 0 0.0182171 -0.0116028 0.00176787 46.4689 0.00523356 
95 0.0178664 -0.00959791 -0.0150694 0 0.0231258 -0.0147291 -0.00368367 72.1924 0.00635896 
99 0.0136096 -0.00731115 -0.011479 0 0.0161341 -0.010276 -0.0027058 56.1459 0.00384758 
103 0.00804692 -0.00432285 -0.00678719 0 0.0117754 -0.00749992 -0.00025582 38.2804 0.00299678 
107 0.0127015 -0.00682348 -0.010713 0 0.0124049 -0.00790113 -0.000762887 39.3753 0.00205477 
111 0.0174283 -0.00936285 -0.0146998 0 0.0259961 -0.0165579 0.000219454 72.3993 0.0055583 
115 0.0132746 -0.00713121 -0.0111964 0 0.0196492 -0.0125149 0.00252083 69.2484 0.00375777 
119 0.000232951 -0.000232951 0 0 0 -0.000129253 -8.93124e-05 0.0599627 -5.824e-05 
123 0 0 0 0 0 0 0 0 0 
127 0.000318206 -0.000318206 0 0 0 7.16756e-05 -0.000196826 0.169169 -3.84941e-05 
131 0 0 0 0 0 0 0 0 0 
4 9.05099 9.05079 0.0592142 0 -0.00068573 0.104813 0.00421232 11984.9 0.490982 
8 8.87297 8.86815 -0.292391 0 0.00839829 0.254718 -0.00154696 11918.4 1.03202 
12 8.80569 8.78257 -0.637604 0 0.0260954 0.359447 -0.00031205 11939.2 1.56966 
16 8.76954 8.7146 -0.980107 0 0.0526929 0.468518 -0.00673909 12157.8 2.1037 
20 8.60435 8.5058 -1.2985 0 0.0896051 0.586956 0.00988619 11994.2 2.5909 
24 8.46645 8.31247 -1.60736 0 0.144055 0.74498 0.00464902 12072.7 3.0658 
28 8.25865 8.0402 -1.88689 0 0.203389 0.866656 -0.00337047 11835.9 3.48857 
32 8.0898 7.79663 -2.1581 0 0.271311 0.980175 0.00321017 11796.2 3.89895 
36 7.86302 7.48929 -2.39532 0 0.356005 1.1131 -0.016566 11711.1 4.25759 
40 7.53752 7.08296 -2.57794 0 0.4378 1.20287 0.00016707 11377.4 4.52288 
44 7.21636 6.67833 -2.73418 0 0.549029 1.34102 -0.00820819 11306.4 4.76452 
48 6.58326 5.98922 -2.73287 0 0.708777 1.55332 0.00206154 11217.1 4.79678 
52 3.00795 1.90487 -2.32792 0 1.39016 1.13753 0.00705666 7305.27 2.46768 
56 0.308585 -0.027249 -0.307379 0 0.343209 -0.0304253 0.00971885 1057.47 0.241962 
60 0.0358863 -0.0192785 -0.0302682 0 0.0369312 -0.0235224 -0.00224229 133.039 0.013546 
64 0.031327 -0.0168296 -0.0264224 0 0.0331729 -0.0211294 -0.0040866 94.0351 0.0119857 
68 0.0281596 -0.0151279 -0.023751 0 0.0244634 -0.0155817 0.00343778 96.6867 0.00652924 
72 0.0270853 -0.0145504 -0.0228451 0 0.025493 -0.0162369 0.00333184 92.5298 0.00728134 
76 0.0184427 -0.00990759 -0.0155555 0 0.0229553 -0.0146207 -0.00090786 74.7097 0.00823888 
80 0.0151473 -0.00813714 -0.0127761 0 0.0192773 -0.0122778 -0.000164159 68.0925 0.006656 
84 0.0140116 -0.00752716 -0.0118181 0 0.0221915 -0.0141342 -0.0027483 71.9183 0.00826319 
88 0.0149803 -0.00804754 -0.0126351 0 0.0197663 -0.0125896 -0.00170267 53.3364 0.00620529 
92 0.015953 -0.00856989 -0.0134556 0 0.0250163 -0.0159329 -0.000375748 73.6379 0.00815004 
96 0.0150735 -0.00809757 -0.0127138 0 0.0213128 -0.0135744 0.000141292 70.3577 0.00609977 
100 0.0139373 -0.00748736 -0.0117553 0 0.0166015 -0.0105741 -0.00171631 49.627 0.00389721 
104 0.0118785 -0.00638138 -0.0100189 0 0.0154283 -0.00982688 0.00561233 41.8034 0.0035611 
108 0.00546577 -0.00293624 -0.00461011 0 0.00858053 -0.00546506 -0.00260954 28.6434 0.00202994 
112 0.00948329 -0.00509448 -0.00799869 0 0.0127111 -0.00809586 0.00189557 37.4283 0.0024805 
116 0.00483632 -0.00259812 -0.00407919 0 0.00772605 -0.00492087 0.000578385 26.0892 0.0014958 
120 0 0 0 0 0 0 0 0 0 
124 0 0 0 0 0 0 0 0 0 
128 0 0 0 0 0 0 0 0 0 
132 0.00116055 -0.00116055 0 0 0 -0.000459931 -0.0018604 3.02619 -4.67981e-05 
