ITEM: TIMESTEP
20000
ITEM: NUMBER OF SURFS
134
ITEM: BOX BOUNDS oo ao pp
-10 10
0 10
-0.5 0.5
ITEM: SURFS id f_avg_pressure[1] f_avg_pressure[2] f_avg_pressure[3] f_avg_pressure[4] f_avg_shear[1] f_avg_shear[2] f_avg_shear[3] f_avg_heat_flux[*] f_avg_fdrag[*] 
1 9.0802 9.07426 0.328466 0 0.000192507 -0.00531824 -0.00797789 11232.6 0.070306 
5 8.99957 8.99952 -0.0298918 0 0.000428131 0.128897 0.0057452 11746.8 0.627808 
9 8.85219 8.84407 -0.379219 0 0.0106622 0.248662 0.00615503 11731.1 1.16668 
13 8.77719 8.74743 -0.722115 0 0.0319167 0.386627 -0.00289221 11840.2 1.70016 
17 8.66197 8.59772 -1.053 0 0.0622949 0.508636 0.000903365 11886 2.21132 
21 8.51925 8.40856 -1.36885 0 0.102892 0.632039 0.00188196 11716.8 2.69598 
25 8.39733 8.22844 -1.67567 0 0.155809 0.765106 0.000864344 11737.9 3.16716 
29 8.22911 7.99244 -1.95938 0 0.218876 0.892809 0.00246592 11700.3 3.5987 
33 7.97898 7.66841 -2.20446 0 0.286887 0.997965 0.00322034 11510.9 3.96335 
37 7.7529 7.36071 -2.43463 0 0.370021 1.1187 0.00168127 11438.4 4.30948 
41 7.46076 6.98528 -2.62085 0 0.461906 1.2311 0.0048238 11292.1 4.58698 
45 7.0401 6.4886 -2.7315 0 0.573866 1.3632 0.00324545 11102.4 4.75692 
49 6.34066 5.7422 -2.68908 0 0.759601 1.62203 0.00984485 11162.1 4.74777 
53 1.94786 0.920548 -1.71661 0 1.24238 0.666236 -0.00670073 5195.74 1.63751 
57 0.138008 -0.038396 -0.132559 0 0.160224 -0.046409 -0.000899678 494.42 0.0929692 
61 0.0377228 -0.020265 -0.0318173 0 0.0413912 -0.0263628 -0.000224741 134.458 0.0160316 
65 0.0286695 -0.0154015 -0.0241813 0 0.03416 -0.0217571 -0.000915696 109.852 0.0135975 
69 0.0208835 -0.0112186 -0.0176143 0 0.0248661 -0.0158373 -0.00033845 80.1255 0.00942917 
73 0.0221106 -0.011878 -0.0186492 0 0.0261324 -0.0166442 -0.000479855 84.5943 0.00936405 
77 0.0232222 -0.0124749 -0.0195869 0 0.0261219 -0.0166371 0.00260818 89.8788 0.0085015 
81 0.0192424 -0.0103372 -0.01623 0 0.0259979 -0.0165585 0.000369233 85.0626 0.00922372 
85 0.0183869 -0.00987765 -0.0155084 0 0.0252782 -0.0161002 0.00109973 84.223 0.00854727 
89 0.015552 -0.00835473 -0.0131173 0 0.0205142 -0.013066 0.000287003 65.8401 0.00633554 
93 0.0154706 -0.00831113 -0.0130485 0 0.0199525 -0.0127085 -0.000833534 58.6829 0.00566996 
97 0.0161634 -0.00868327 -0.0136329 0 0.0214522 -0.0136637 0.00126197 67.9017 0.00578537 
101 0.0109849 -0.00590117 -0.00926525 0 0.0151744 -0.00966475 0.000669878 47.8109 0.00388641 
105 0.0110419 -0.00593174 -0.00931328 0 0.0139187 -0.008865 4.98132e-05 41.634 0.00307601 
109 0.0125214 -0.00672656 -0.0105612 0 0.0151351 -0.0096397 -0.000160196 50.4145 0.00295266 
113 0.0119981 -0.00644545 -0.0101198 0 0.0174303 -0.0111016 -0.00111713 52.7756 0.00348415 
117 0.000669188 -0.000669188 0 0 0 0.000435871 4.25287e-05 1.85102 -0.000188891 
121 0.00012858 -0.00012858 0 0 0 -4.43159e-05 7.52297e-06 0.0731327 -2.79983e-05 
125 0.000359879 -0.000359879 0 0 0 -0.000228728 0.000182274 1.01411 -5.51449e-05 
129 0.000410659 -0.000410659 0 0 0 -4.95855e-05 -5.56701e-05 0.433985 -3.64308e-05 
133 0.00104841 -0.00104841 0 0 0 -0.000841708 0.000864078 2.38287 -2.53657e-05 
2 9.06409 9.06096 0.238313 0 -0.000791173 0.0300814 -0.00569465 11463.7 0.210607 
6 8.94077 8.93999 -0.118048 0 0.00213851 0.161953 -0.00059831 11713.1 0.76242 
10 8.8228 8.81054 -0.46495 0 0.0146637 0.277869 -0.00321427 11698 1.29947 
14 8.72511 8.68803 -0.803543 0 0.0379232 0.410031 0.00704546 11728.5 1.8246 
18 8.62636 8.5516 -1.13322 0 0.0709009 0.535037 0.00068098 11767.1 2.33436 
22 8.495 8.3707 -1.4479 0 0.114282 0.660695 -0.00479098 11813.7 2.81733 
26 8.33802 8.1535 -1.74442 0 0.167647 0.783591 -0.00688409 11731.5 3.26956 
30 8.18933 7.93417 -2.02831 0 0.232888 0.910993 0.00474252 11653.4 3.70215 
34 7.94126 7.61014 -2.26922 0 0.305934 1.02599 0.0105447 11449.8 4.06148 
38 7.69452 7.28106 -2.48832 0 0.394421 1.15411 -0.000177791 11395.8 4.39152 
42 7.36836 6.87287 -2.6564 0 0.481435 1.24561 0.00698783 11227.3 4.63628 
46 6.90526 6.33753 -2.74196 0 0.602979 1.39367 -0.000407583 11059.9 4.77383 
50 5.75594 5.05702 -2.74908 0 0.951288 1.74992 -0.00525516 11000.6 4.36411 
54 1.15865 0.340949 -1.10735 0 1.0144 0.312332 -0.00476662 3607.11 1.03377 
58 0.0628511 -0.0287722 -0.0558787 0 0.0691396 -0.0356002 -0.000586567 213.502 0.0305848 
62 0.03254 -0.0174807 -0.0274459 0 0.0367507 -0.0234071 0.000697544 119.288 0.0144593 
66 0.0269672 -0.0144867 -0.0227457 0 0.0327202 -0.0208394 0.000298532 100.083 0.0130623 
70 0.0253426 -0.0136143 -0.0213752 0 0.0306562 -0.0195255 -0.00150384 100.658 0.0116295 
74 0.0215486 -0.0115761 -0.0181752 0 0.0272173 -0.0173352 0.000530922 86.092 0.0101422 
78 0.019697 -0.0105817 -0.0166133 0 0.0243008 -0.0154782 -0.00097262 75.6012 0.00842987 
82 0.0167408 -0.00899353 -0.0141199 0 0.0211219 -0.0134534 -4.91307e-06 63.8711 0.00704031 
86 0.0161247 -0.00866238 -0.0136003 0 0.0205889 -0.0131136 0.001001 63.735 0.00651808 
90 0.0169191 -0.00908905 -0.0142704 0 0.0209272 -0.0133289 -0.00113751 65.1911 0.00606739 
94 0.0141919 -0.00762399 -0.0119702 0 0.0192981 -0.0122912 -0.000795732 62.0885 0.00558674 
98 0.0130852 -0.00702946 -0.0110368 0 0.0170156 -0.0108374 0.00146062 53.7446 0.00443964 
102 0.0122324 -0.00657133 -0.0103175 0 0.0145768 -0.00928418 0.000191656 47.7938 0.00328713 
106 0.0134054 -0.00720144 -0.0113068 0 0.0180257 -0.0114808 0.0012801 57.5589 0.00407677 
110 0.0139679 -0.00750364 -0.0117813 0 0.0199062 -0.0126785 -0.00183282 66.0917 0.00424983 
114 0.0135394 -0.00727352 -0.0114198 0 0.0186673 -0.0118896 -0.00140805 71.0028 0.00351708 
118 0.000322616 -0.000322616 0 0 0 -0.000200345 -0.000194919 0.33194 -8.58606e-05 
122 0.000369776 -0.000369776 0 0 0 -0.000305522 6.67872e-05 0.727855 -7.45545e-05 
126 0.000346281 -0.000346281 0 0 0 -5.38071e-05 3.55321e-06 0.465985 -4.74759e-05 
130 4.14513e-05 -4.14513e-05 0 0 0 1.76195e-05 8.25569e-05 0.0318571 -3.00867e-06 
134 0.000766891 -0.000766891 0 0 0 -0.000458822 -0.000409761 3.23629 -6.18484e-06 
3 9.027 9.02579 0.148243 0 -0.000889255 0.0541423 -0.00162313 11572.1 0.349689 
7 8.93343 8.93105 -0.206266 0 0.00446017 0.193119 -0.00247109 11771.7 0.900381 
11 8.8225 8.80522 -0.551974 0 0.0196575 0.313581 0.000158622 11724 1.43603 
15 8.67627 8.63107 -0.884449 0 0.0445878 0.435119 0.00395685 11678.7 1.94797 
19 8.60338 8.51723 -1.21442 0 0.0819557 0.574789 0.000275557 11783.6 2.46014 
23 8.46232 8.32388 -1.52444 0 0.127907 0.69841 0.000791746 11688.7 2.93532 
27 8.29934 8.0981 -1.81654 0 0.183741 0.819113 -0.00946237 11680.4 3.37958 
31 8.12739 7.85388 -2.09071 0 0.25205 0.946841 0.000737623 11626.9 3.79605 
35 7.89181 7.5401 -2.32974 0 0.327233 1.05908 0.0036796 11504.7 4.15326 
39 7.62955 7.19484 -2.53857 0 0.416616 1.18077 0.00448126 11385.2 4.4663 
43 7.29993 6.7827 -2.69888 0 0.515581 1.29574 -0.00395968 11244.5 4.70633 
47 6.80061 6.21451 -2.76193 0 0.653585 1.4706 0.00221465 11163.7 4.82144 
51 4.34649 3.34817 -2.77158 0 1.28477 1.55205 0.0094023 9343.15 3.4215 
55 0.61887 0.0649555 -0.615451 0 0.65971 0.0696266 -0.00392387 2110.45 0.55488 
59 0.0367504 -0.0197426 -0.0309971 0 0.0398145 -0.0253585 -0.00161411 128.89 0.0155724 
63 0.0303392 -0.0162982 -0.0255898 0 0.0351342 -0.0223771 0.00164317 112.047 0.0139738 
67 0.025831 -0.0138766 -0.0217872 0 0.0297812 -0.0189682 0.000859612 93.0974 0.0112586 
71 0.0228152 -0.0122567 -0.0192433 0 0.0266277 -0.0169601 0.000136361 85.4112 0.00968504 
75 0.0227739 -0.0122344 -0.0192086 0 0.0273842 -0.0174417 -0.00051142 95.8916 0.00969513 
79 0.0202076 -0.0108557 -0.0170441 0 0.0237315 -0.015115 0.000292283 77.3583 0.00780224 
83 0.0186165 -0.0100008 -0.0157022 0 0.0215718 -0.0137391 -0.00149436 70.3846 0.00661859 
87 0.013862 -0.00744679 -0.0116919 0 0.0164075 -0.0104502 0.000783584 52.7124 0.00482094 
91 0.0179632 -0.00965001 -0.015151 0 0.0228971 -0.0145836 -0.00098028 67.6086 0.00667699 
95 0.0163752 -0.00879683 -0.0138117 0 0.0217261 -0.0138377 0.000585834 69.7952 0.00607758 
99 0.0132659 -0.00712652 -0.0111891 0 0.0161524 -0.0102877 -0.000900489 52.5621 0.0039361 
103 0.0120775 -0.00648809 -0.0101868 0 0.017577 -0.011195 0.000224288 55.8192 0.004459 
107 0.0102526 -0.00550791 -0.00864751 0 0.0152247 -0.00969718 -0.0011353 52.2228 0.0035772 
111 0.011967 -0.00642892 -0.0100935 0 0.0169037 -0.0107666 8.66269e-05 50.1851 0.00350034 
115 0.0110622 -0.00594271 -0.00933041 0 0.0151564 -0.0096534 0.000409161 54.7798 0.00276587 
119 0.000439218 -0.000439218 0 0 0 3.9412e-05 -0.000109262 0.479543 -0.000109809 
123 0.000476097 -0.000476097 0 0 0 1.62514e-05 -0.000199784 0.672503 -8.83115e-05 
127 0.000618806 -0.000618806 0 0 0 -0.000125937 -0.000552339 0.486247 -7.48583e-05 
131 0.000322147 -0.000322147 0 0 -1.29211e-19 -0.000233076 0.000323331 0.533259 -1.81864e-05 
4 9.01567 9.01548 0.0589832 0 -0.000642922 0.0982696 -0.000133078 11677 0.489069 
8 8.90793 8.90309 -0.293543 0 0.00739183 0.224192 0.00186445 11769.6 1.03597 
12 8.79636 8.77327 -0.636929 0 0.0253698 0.349453 0.0079006 11767.3 1.56787 
16 8.69292 8.63846 -0.971544 0 0.0524428 0.466294 -0.00278533 11790.2 2.08537 
20 8.55833 8.46031 -1.29156 0 0.0927713 0.607697 -0.000873869 11748.1 2.57814 
24 8.44784 8.29419 -1.60383 0 0.139847 0.72322 -0.00678792 11810.2 3.05765 
28 8.26691 8.04825 -1.88878 0 0.198831 0.847236 0.0100875 11668.8 3.49004 
32 8.07128 7.77879 -2.15316 0 0.272512 0.984515 -0.00521447 11639.8 3.8909 
36 7.82746 7.45542 -2.38449 0 0.349473 1.09267 0.000279183 11486.5 4.23567 
40 7.52857 7.07455 -2.57488 0 0.431444 1.1854 0.00544443 11268 4.51401 
44 7.18745 6.65158 -2.72323 0 0.545287 1.33188 0.000173062 11194.8 4.74442 
48 6.57985 5.98612 -2.73145 0 0.699332 1.53262 0.00113971 11102.9 4.7878 
52 3.01259 1.90781 -2.33151 0 1.37999 1.12921 0.00430103 7241.74 2.46227 
56 0.306695 -0.0270822 -0.305497 0 0.353958 -0.0313783 0.005244 1080.84 0.250322 
60 0.040084 -0.0215336 -0.0338087 0 0.0427685 -0.0272403 -0.00133869 143.015 0.0162948 
64 0.0300769 -0.0161581 -0.025368 0 0.033991 -0.0216504 -0.0010827 107.494 0.0130782 
68 0.0241272 -0.0129617 -0.0203499 0 0.0269301 -0.0171528 0.00122281 89.1082 0.00976945 
72 0.0248354 -0.0133417 -0.0209474 0 0.028761 -0.0183184 7.45259e-05 92.1363 0.0102602 
76 0.0191646 -0.0102954 -0.0161643 0 0.022714 -0.014467 -0.000601515 77.4338 0.0078416 
80 0.017734 -0.00952671 -0.0149579 0 0.0217452 -0.0138496 0.000982048 70.3463 0.00730024 
84 0.0163509 -0.00878386 -0.0137912 0 0.0210131 -0.0133836 -0.00118243 68.5004 0.00689104 
88 0.0149896 -0.00805256 -0.012643 0 0.0200507 -0.0127707 0.000230019 66.7555 0.00635325 
92 0.0172001 -0.00923987 -0.0145076 0 0.023764 -0.0151353 0.0011251 75.4182 0.00719744 
96 0.017617 -0.00946392 -0.0148591 0 0.0254312 -0.0161974 -2.05155e-05 83.8217 0.00737004 
100 0.0124304 -0.00667783 -0.0104843 0 0.0173447 -0.0110475 -0.00011367 57.3302 0.00456116 
104 0.0131151 -0.0070457 -0.0110618 0 0.0187562 -0.0119465 0.00106347 57.0316 0.00460953 
108 0.0100554 -0.00540181 -0.00848122 0 0.0139801 -0.00890413 -0.00136605 42.4499 0.00308515 
112 0.0111537 -0.00599182 -0.00940759 0 0.0159998 -0.0101905 0.000355772 47.258 0.0032593 
116 0.010907 -0.00585931 -0.00919946 0 0.0141766 -0.00902935 0.000458591 47.0294 0.00242613 
120 0.000173195 -0.000173195 0 0 0 7.4949e-05 -2.64375e-05 0.0118431 -4.05067e-05 
124 0.000242217 -0.000242217 0 0 0 -0.000138594 2.84298e-05 0.427227 -4.10222e-05 
128 0.000425176 -0.000425176 0 0 0 0.000490222 -3.65621e-05 1.07116 -4.45767e-05 
132 0.000291159 -0.000291159 0 0 0 -8.24515e-05 -0.000237155 0.42557 -1.17407e-05 
