ITEM: TIMESTEP
23000
ITEM: NUMBER OF SURFS
134
ITEM: BOX BOUNDS oo ao pp
-10 10
0 10
-0.5 0.5
ITEM: SURFS id f_avg_pressure[1] f_avg_pressure[2] f_avg_pressure[3] f_avg_pressure[4] f_avg_shear[1] f_avg_shear[2] f_avg_shear[3] f_avg_heat_flux[*] f_avg_fdrag[*] 
1 9.06283 9.05689 0.327837 0 0.000207983 -0.00574579 -0.00349422 11182.7 0.0701716 
5 8.9896 8.98955 -0.0298587 0 0.000414587 0.12482 0.00654687 11717.1 0.627112 
9 8.85261 8.84448 -0.379237 0 0.0106665 0.248761 0.00595539 11716.6 1.16673 
13 8.78491 8.75513 -0.72275 0 0.0323029 0.391305 -0.00654488 11858.5 1.70172 
17 8.66632 8.60205 -1.05353 0 0.061896 0.505379 0.00398358 11868.4 2.21232 
21 8.51503 8.40439 -1.36818 0 0.102021 0.626689 -0.00170227 11697.1 2.69438 
25 8.39364 8.22482 -1.67494 0 0.154941 0.76084 -0.00460388 11706.9 3.16547 
29 8.22844 7.99179 -1.95922 0 0.21816 0.889887 0.00356489 11694.4 3.5981 
33 7.9733 7.66295 -2.20288 0 0.286208 0.995601 0.00699733 11488.1 3.96029 
37 7.75518 7.36288 -2.43535 0 0.369413 1.11686 -0.00090536 11428.1 4.31035 
41 7.46055 6.98508 -2.62078 0 0.460281 1.22677 0.00144058 11267.3 4.58585 
45 7.04339 6.49163 -2.73277 0 0.573346 1.36197 -0.00124448 11105.1 4.75861 
49 6.3526 5.75301 -2.69414 0 0.760973 1.62496 0.00509146 11176.4 4.75667 
53 1.95005 0.921583 -1.71854 0 1.24274 0.666432 -0.00261728 5185.43 1.63857 
57 0.137895 -0.0383647 -0.132451 0 0.160543 -0.0465016 -0.000466787 492.953 0.093237 
61 0.0371682 -0.0199671 -0.0313495 0 0.0407959 -0.0259837 0.00053541 129.894 0.0158059 
65 0.0289537 -0.0155542 -0.024421 0 0.0333766 -0.0212582 -0.000273276 108.413 0.012919 
69 0.0226013 -0.0121414 -0.0190632 0 0.0266342 -0.0169634 -0.000538331 86.7416 0.0100132 
73 0.0216114 -0.0116098 -0.0182282 0 0.0256946 -0.0163654 -0.00078919 83.784 0.00925261 
77 0.0215001 -0.0115499 -0.0181344 0 0.025146 -0.0160156 0.00205115 83.7377 0.00846984 
81 0.0197702 -0.0106207 -0.0166752 0 0.0258013 -0.0164333 -3.87295e-05 85.2072 0.00894093 
85 0.0174831 -0.00939209 -0.0147461 0 0.0239262 -0.0152391 0.000800049 78.0255 0.00806639 
89 0.0162169 -0.00871192 -0.0136781 0 0.0211941 -0.013499 0.000346183 67.9933 0.00650368 
93 0.0151494 -0.00813859 -0.0127776 0 0.0190968 -0.0121635 -0.000724345 55.9776 0.00533726 
97 0.0155999 -0.00838057 -0.0131576 0 0.0198831 -0.0126643 0.00091166 62.7219 0.0052116 
101 0.0124436 -0.00668479 -0.0104956 0 0.0170539 -0.0108619 0.00072819 56.202 0.00434572 
105 0.0114529 -0.00615255 -0.00965998 0 0.0150637 -0.00959423 0.000216096 46.9212 0.00343191 
109 0.0114886 -0.00617174 -0.00969009 0 0.0142977 -0.00910635 0.000131261 45.7884 0.00285344 
113 0.0113946 -0.00612127 -0.00961079 0 0.0153588 -0.00978225 -0.000837971 46.5669 0.00292993 
117 0.000499071 -0.000499071 0 0 0 0.000344742 7.72511e-05 1.36432 -0.000140872 
121 0.000181433 -0.000181433 0 0 0 -5.76604e-05 -0.000118136 0.224344 -3.9507e-05 
125 0.000384295 -0.000384295 0 0 0 -4.98017e-05 -6.61938e-06 1.02331 -5.88862e-05 
129 0.000287462 -0.000287462 0 0 0 -3.47099e-05 -3.89691e-05 0.303789 -2.55016e-05 
133 0.000733888 -0.000733888 0 0 0 -0.000589196 0.000604854 1.66801 -1.7756e-05 
2 9.0595 9.05637 0.238192 0 -0.000810308 0.0308089 -0.005746 11447.2 0.2105 
6 8.93964 8.93886 -0.118033 0 0.00213325 0.161554 0.000351255 11708.8 0.762323 
10 8.82395 8.81169 -0.465011 0 0.0147036 0.278625 0.000759309 11697.2 1.29965 
14 8.73325 8.69614 -0.804293 0 0.0378126 0.408835 0.00719872 11734.9 1.82627 
18 8.62038 8.54567 -1.13244 0 0.0710927 0.536485 -0.00117436 11716.6 2.33281 
22 8.49989 8.37552 -1.44873 0 0.113835 0.658113 -0.00328146 11816.8 2.81878 
26 8.33925 8.1547 -1.74468 0 0.168736 0.788678 -0.00435652 11724.2 3.27046 
30 8.18396 7.92897 -2.02698 0 0.232354 0.908902 0.00347519 11636.1 3.69955 
34 7.93095 7.60026 -2.26627 0 0.304882 1.02246 0.00366198 11425.9 4.05587 
38 7.68734 7.27427 -2.486 0 0.391992 1.14701 -0.00210806 11373.1 4.38625 
42 7.37427 6.87838 -2.65853 0 0.482877 1.24934 0.00901402 11223.4 4.64067 
46 6.9105 6.34234 -2.74404 0 0.602245 1.39198 0.000649986 11060.6 4.77664 
50 5.74888 5.05081 -2.74571 0 0.950387 1.74826 -0.00522102 10974.7 4.35894 
54 1.16286 0.342189 -1.11137 0 1.0158 0.312761 -0.00181631 3604.01 1.03578 
58 0.0621511 -0.0284517 -0.0552563 0 0.0686024 -0.0353236 -0.000823507 211.825 0.0304206 
62 0.0323317 -0.0173688 -0.0272702 0 0.0358242 -0.022817 0.00172503 115.172 0.013848 
66 0.0272146 -0.0146196 -0.0229543 0 0.0327516 -0.0208594 0.000593134 103.192 0.0129896 
70 0.0239355 -0.0128583 -0.0201884 0 0.028204 -0.0179637 -0.00143645 91.5528 0.0104719 
74 0.0217442 -0.0116812 -0.0183402 0 0.0276904 -0.0176365 0.000358323 90.5953 0.0103808 
78 0.0199574 -0.0107216 -0.0168329 0 0.0251855 -0.0160417 -0.00134514 79.1373 0.00888753 
82 0.0170169 -0.00914186 -0.0143527 0 0.0224636 -0.014308 6.19647e-05 70.6242 0.00773309 
86 0.0168131 -0.00903222 -0.014181 0 0.0216059 -0.0137613 0.00140457 66.4362 0.00687172 
90 0.0163604 -0.00878892 -0.0137991 0 0.0207688 -0.013228 -0.000294174 65.8061 0.00614005 
94 0.0138102 -0.0074189 -0.0116482 0 0.0184753 -0.0117671 -0.00116252 58.6211 0.0052911 
98 0.0136765 -0.0073471 -0.0115355 0 0.0181388 -0.0115529 0.000256399 58.3145 0.0047978 
102 0.012447 -0.00668659 -0.0104984 0 0.0151533 -0.0096513 -0.000148102 48.6533 0.00347648 
106 0.0121509 -0.00652752 -0.0102487 0 0.0161735 -0.0103011 0.000820866 51.2353 0.00363299 
110 0.0124942 -0.00671194 -0.0105383 0 0.0175021 -0.0111473 -0.00137473 57.4988 0.00369735 
114 0.0134252 -0.00721213 -0.0113234 0 0.0183024 -0.0116572 -0.000335898 69.3385 0.0034234 
118 0.000437652 -0.000437652 0 0 0 -0.000198285 -0.000115538 0.373471 -0.000116476 
122 0.00062475 -0.00062475 0 0 0 -0.000304174 9.46194e-05 0.796609 -0.000125962 
126 0.000428978 -0.000428978 0 0 0 -0.000161502 1.14473e-05 0.462634 -5.88137e-05 
130 0.00013015 -0.00013015 0 0 0 -3.17295e-05 5.91467e-05 0.112908 -9.44668e-06 
134 0.000536824 -0.000536824 0 0 0 -0.000321176 -0.000286832 2.26541 -4.32939e-06 
3 9.01814 9.01692 0.148098 0 -0.000958226 0.0583416 -0.00314921 11537 0.349343 
7 8.92866 8.92628 -0.206156 0 0.00451564 0.195521 -0.00136267 11748.7 0.899907 
11 8.81904 8.80177 -0.551758 0 0.0198627 0.316854 0.00358776 11714.8 1.4355 
15 8.68697 8.64172 -0.88554 0 0.0446847 0.436064 0.00714886 11699.9 1.95038 
19 8.5972 8.51112 -1.21355 0 0.0815002 0.571595 -0.00219334 11749.9 2.45826 
23 8.46001 8.3216 -1.52403 0 0.127808 0.697869 0.00132519 11678.3 2.93449 
27 8.30083 8.09956 -1.81687 0 0.184082 0.820634 -0.000765183 11666.3 3.38031 
31 8.12021 7.84693 -2.08887 0 0.251827 0.946 -0.000799392 11599.4 3.7927 
35 7.88924 7.53764 -2.32898 0 0.325506 1.05349 0.00450667 11472.4 4.15105 
39 7.62735 7.19277 -2.53784 0 0.415257 1.17692 0.00553656 11382 4.46428 
43 7.29984 6.78262 -2.69884 0 0.514326 1.29258 -0.000510554 11237.3 4.70547 
47 6.80543 6.21891 -2.76389 0 0.651018 1.46483 0.00110541 11150 4.82273 
51 4.35039 3.35118 -2.77407 0 1.28501 1.55234 0.00602717 9354.23 3.4239 
55 0.62005 0.0650794 -0.616625 0 0.663156 0.0699902 2.79233e-05 2125.6 0.557613 
59 0.0373978 -0.0200904 -0.0315432 0 0.0401447 -0.0255689 -0.00104966 132.028 0.0155588 
63 0.0314856 -0.0169141 -0.0265567 0 0.0356573 -0.0227103 0.000647219 114.667 0.013905 
67 0.0257188 -0.0138163 -0.0216925 0 0.0295244 -0.0188046 -0.000344592 93.7252 0.0111195 
71 0.0228054 -0.0122514 -0.0192351 0 0.0266185 -0.0169542 0.000618088 86.0692 0.00968238 
75 0.02125 -0.0114158 -0.0179233 0 0.0256222 -0.0163194 -0.00126561 87.0874 0.00909142 
79 0.0189861 -0.0101995 -0.0160138 0 0.0229511 -0.014618 -0.000719058 74.096 0.00772699 
83 0.0184975 -0.0099368 -0.0156018 0 0.021183 -0.0134915 -0.000341695 69.5756 0.00643275 
87 0.0147057 -0.00790002 -0.0124035 0 0.0179094 -0.0114068 3.65976e-05 55.5854 0.00538513 
91 0.0169307 -0.00909534 -0.0142802 0 0.0214807 -0.0136815 -0.000961465 63.3825 0.00624268 
95 0.0156242 -0.00839343 -0.0131783 0 0.0206383 -0.0131448 -2.9672e-05 66.7362 0.00575589 
99 0.014979 -0.0080468 -0.012634 0 0.0190342 -0.0121231 -0.00139029 63.7557 0.00479149 
103 0.0116649 -0.00626646 -0.0098388 0 0.0166569 -0.010609 -6.03227e-05 52.784 0.00417815 
107 0.0114631 -0.0061582 -0.00966848 0 0.0164711 -0.010491 -0.00065857 55.4134 0.00379663 
111 0.0127084 -0.00682723 -0.0107188 0 0.0174395 -0.0111079 0.000518719 54.7733 0.00354631 
115 0.0113222 -0.00608239 -0.00954972 0 0.0156242 -0.00995131 0.000672151 52.7857 0.00286435 
119 0.000335644 -0.000335644 0 0 0 1.88568e-05 -1.69945e-05 0.380563 -8.39141e-05 
123 0.000493821 -0.000493821 0 0 0 -8.28918e-05 -7.80851e-05 0.754565 -9.15991e-05 
127 0.000474402 -0.000474402 0 0 0 -9.24488e-05 -0.000366201 0.352148 -5.73894e-05 
131 0.000609097 -0.000609097 0 0 -2.22351e-19 0.000478923 0.000440219 1.35285 -3.43858e-05 
4 9.00155 9.00136 0.0588908 0 -0.000647155 0.0989166 9.90038e-05 11645.8 0.488302 
8 8.91395 8.90911 -0.293742 0 0.00734653 0.222818 0.00596331 11776.1 1.03666 
12 8.79433 8.77125 -0.636782 0 0.0255619 0.352099 0.00740601 11747.1 1.56755 
16 8.69223 8.63777 -0.971467 0 0.0528177 0.469627 -0.0037453 11774.5 2.0853 
20 8.55266 8.45471 -1.2907 0 0.0927188 0.607353 -0.000137336 11750.4 2.57643 
24 8.44704 8.29341 -1.60367 0 0.140457 0.726373 -0.00416414 11807.9 3.05759 
28 8.26062 8.04213 -1.88734 0 0.199574 0.850402 0.00656104 11646.4 3.48777 
32 8.07166 7.77915 -2.15326 0 0.271773 0.981846 -0.00366346 11627 3.89072 
36 7.82493 7.45301 -2.38372 0 0.34785 1.0876 0.00102083 11465.1 4.23348 
40 7.52223 7.0686 -2.57272 0 0.431551 1.1857 0.0045858 11258.8 4.51049 
44 7.18329 6.64773 -2.72165 0 0.542939 1.32614 0.00264502 11175.1 4.74033 
48 6.58717 5.99278 -2.73449 0 0.697988 1.52968 0.00427768 11100.6 4.7916 
52 3.01307 1.90811 -2.33188 0 1.38235 1.13114 0.00366173 7243.23 2.46426 
56 0.306872 -0.0270978 -0.305673 0 0.350983 -0.0311145 0.00611039 1078.37 0.248032 
60 0.0399802 -0.0214779 -0.0337212 0 0.0416458 -0.0265252 -0.00118364 139.841 0.015476 
64 0.0300817 -0.0161607 -0.0253721 0 0.0341101 -0.0217263 -0.000913755 108.317 0.0131636 
68 0.0253963 -0.0136434 -0.0214203 0 0.0293583 -0.0186994 0.000610125 95.552 0.0109909 
72 0.0243811 -0.0130977 -0.0205642 0 0.0284982 -0.0181509 -0.000484072 92.0623 0.0102477 
76 0.0201913 -0.010847 -0.0170304 0 0.0240184 -0.0152978 -0.000765312 77.8569 0.00831696 
80 0.0173927 -0.00934335 -0.01467 0 0.0220016 -0.0140129 0.00157485 70.638 0.007563 
84 0.0163196 -0.00876702 -0.0137647 0 0.0214969 -0.0136918 -0.00051046 68.6623 0.00717315 
88 0.015216 -0.00817416 -0.0128339 0 0.0208988 -0.0133109 0.000574913 69.1523 0.00673794 
92 0.0162808 -0.00874599 -0.0137321 0 0.0217934 -0.0138802 0.00129126 69.207 0.00646564 
96 0.0165137 -0.00887121 -0.0139285 0 0.0226979 -0.0144566 0.000729224 74.0012 0.006382 
100 0.0118485 -0.00636523 -0.00999352 0 0.0155024 -0.00987404 0.000188806 49.8685 0.00390706 
104 0.0121992 -0.00655367 -0.0102894 0 0.0181392 -0.0115536 -0.000153399 55.0555 0.00456037 
108 0.0120073 -0.00645039 -0.0101276 0 0.016484 -0.0104989 -0.000714834 52.8018 0.00360853 
112 0.0120108 -0.00645227 -0.0101305 0 0.0176502 -0.0112416 0.000575259 52.9363 0.00364683 
116 0.0105187 -0.00565073 -0.00887197 0 0.0140313 -0.0089368 0.000915112 46.3282 0.00244458 
120 0.000268079 -0.000268079 0 0 0 -7.40689e-05 -0.000102876 0.149679 -6.26982e-05 
124 0.000289351 -0.000289351 0 0 0 -0.000126248 5.5208e-05 0.360743 -4.90049e-05 
128 0.000442039 -0.000442039 0 0 0 9.62537e-05 0.000103213 1.25027 -4.63446e-05 
132 0.000203811 -0.000203811 0 0 0 -5.77161e-05 -0.000166009 0.297899 -8.21852e-06 
