ITEM: TIMESTEP
15000
ITEM: NUMBER OF SURFS
134
ITEM: BOX BOUNDS oo ao pp
-10 10
0 10
-0.5 0.5
ITEM: SURFS id f_avg_pressure[1] f_avg_pressure[2] f_avg_pressure[3] f_avg_pressure[4] f_avg_shear[1] f_avg_shear[2] f_avg_shear[3] f_avg_heat_flux[*] f_avg_fdrag[*] 
1 9.13137 9.12539 0.330317 0 -0.000110647 0.00305675 0.00471726 11382.4 0.0706998 
5 9.03105 9.031 -0.0299964 0 0.000444761 0.133904 0.0205211 11855.5 0.630006 
9 8.80219 8.79411 -0.377077 0 0.0111115 0.259141 0.0150047 11690 1.16016 
13 8.80573 8.77588 -0.724463 0 0.0330175 0.399961 -0.00943568 12012 1.70588 
17 8.68933 8.62489 -1.05633 0 0.0644767 0.526451 -0.0108425 12021.6 2.21881 
21 8.49775 8.38733 -1.3654 0 0.102981 0.632588 -0.00332637 11754.1 2.68928 
25 8.42208 8.2527 -1.68061 0 0.157171 0.771794 -0.00454162 11850.8 3.17684 
29 8.22519 7.98864 -1.95845 0 0.218543 0.89145 -0.0138687 11739.5 3.59689 
33 7.99456 7.68339 -2.20876 0 0.288676 1.00419 0.00296299 11606.5 3.9717 
37 7.74133 7.34972 -2.431 0 0.37385 1.13027 0.00796266 11478.9 4.30549 
41 7.4522 6.97727 -2.61785 0 0.457405 1.21911 0.0109027 11328.4 4.57927 
45 7.05569 6.50297 -2.73754 0 0.577349 1.37148 0.00722723 11168.3 4.76894 
49 6.33311 5.73536 -2.68588 0 0.761734 1.62659 0.0174653 11171.2 4.74434 
53 1.95737 0.925043 -1.72499 0 1.25822 0.674735 -0.0297242 5254.4 1.65291 
57 0.139014 -0.038676 -0.133526 0 0.164914 -0.0477678 -0.00193619 532.402 0.0963353 
61 0.0398322 -0.0213982 -0.0335965 0 0.045876 -0.0292192 0.000137115 137.639 0.0185749 
65 0.0266015 -0.0142906 -0.0224371 0 0.0305744 -0.0194734 -0.00126703 105.4 0.0118037 
69 0.0237963 -0.0127833 -0.0200711 0 0.0290574 -0.0185068 0.00147428 89.6825 0.0112439 
73 0.0194134 -0.010429 -0.0163742 0 0.023037 -0.0146727 0.000473209 78.914 0.00828249 
77 0.0247124 -0.0132755 -0.0208438 0 0.0295394 -0.0188137 0.00122949 105.257 0.0101317 
81 0.0193443 -0.0103919 -0.0163159 0 0.022722 -0.014472 0.00120382 79.448 0.00726207 
85 0.0179184 -0.00962591 -0.0151132 0 0.0251069 -0.0159911 0.00137137 82.607 0.00859195 
89 0.0166427 -0.00894067 -0.0140373 0 0.0199071 -0.0126793 0.000680684 67.4653 0.00571391 
93 0.0144921 -0.00778549 -0.0122233 0 0.0186616 -0.0118863 -0.00354698 53.4642 0.00529727 
97 0.0179897 -0.00966439 -0.0151733 0 0.0246986 -0.0157314 0.00107585 76.1105 0.00681171 
101 0.00965503 -0.00518673 -0.00814355 0 0.0153451 -0.00977348 -0.000281746 46.7877 0.00425737 
105 0.010706 -0.00575132 -0.00903 0 0.0152467 -0.00971079 -0.00126537 48.3936 0.00365692 
109 0.0147012 -0.00789757 -0.0123998 0 0.016997 -0.0108256 0.00043491 52.0749 0.0031953 
113 0.0117634 -0.00631938 -0.00992183 0 0.0190925 -0.0121603 -0.000463393 59.4365 0.00405134 
117 0.000247887 -0.000247887 0 0 0 0.000120094 -8.57437e-05 0.14836 -6.99707e-05 
121 0.000158404 -0.000158404 0 0 0 -0.00010741 -3.38964e-05 0.180188 -3.44925e-05 
125 0.00125958 -0.00125958 0 0 0 -0.000800549 0.00063796 3.54937 -0.000193007 
129 0 0 0 0 0 0 0 0 0 
133 0.00196285 -0.00196285 0 0 0 8.09852e-05 -0.000500668 4.92741 -4.74901e-05 
2 9.09645 9.0933 0.239164 0 -0.000431854 0.0164196 0.00426017 11618.8 0.211368 
6 8.9861 8.98532 -0.118647 0 0.0022749 0.172282 0.000428773 11841.8 0.766296 
10 8.79993 8.7877 -0.463745 0 0.0147622 0.279735 -9.08106e-05 11766.3 1.29612 
14 8.71373 8.6767 -0.802495 0 0.0382935 0.414035 0.0022535 11771.7 1.82231 
18 8.64366 8.56876 -1.1355 0 0.0715827 0.540182 0.00434665 11873.4 2.33919 
22 8.51183 8.38728 -1.45077 0 0.11675 0.674961 -0.00941954 11951.7 2.82366 
26 8.37092 8.18567 -1.7513 0 0.169023 0.790023 -0.00141003 11897.2 3.28274 
30 8.17298 7.91833 -2.02426 0 0.233391 0.912962 0.00687725 11660.9 3.6952 
34 7.9559 7.62417 -2.2734 0 0.307989 1.03289 -0.00026961 11542.6 4.06973 
38 7.68688 7.27383 -2.48585 0 0.39227 1.14782 -0.00447282 11384.4 4.38616 
42 7.37418 6.8783 -2.6585 0 0.487295 1.26077 0.00768148 11306.3 4.6434 
46 6.90966 6.34156 -2.7437 0 0.603505 1.39489 -0.00215027 11123.2 4.77697 
50 5.78 5.07815 -2.76057 0 0.954479 1.75579 -0.00316545 11039.2 4.38178 
54 1.15062 0.338588 -1.09968 0 1.02069 0.314267 -0.0102011 3645.35 1.03676 
58 0.0582609 -0.0266708 -0.0517977 0 0.0580478 -0.029889 -0.00164826 187.977 0.0237731 
62 0.0286141 -0.0153717 -0.0241345 0 0.0328724 -0.020937 0.00021589 109.15 0.0131317 
66 0.0271968 -0.01461 -0.0229394 0 0.0343823 -0.021898 0.000420454 106.305 0.0141647 
70 0.0254902 -0.0136936 -0.0214997 0 0.0326145 -0.0207728 -0.00180551 105.129 0.0129117 
74 0.0211725 -0.0113741 -0.017858 0 0.0267894 -0.0170627 -0.000802562 93.815 0.00999576 
78 0.0187339 -0.0100642 -0.0158009 0 0.0224939 -0.0143273 -0.00132962 75.515 0.00763749 
82 0.0173677 -0.00933033 -0.0146486 0 0.0230714 -0.0146951 -0.000111027 72.3814 0.00797649 
86 0.0185482 -0.0099643 -0.0156444 0 0.0261049 -0.0166269 0.000913573 82.6769 0.00882116 
90 0.0158266 -0.0085022 -0.013349 0 0.0183136 -0.0116642 5.61312e-05 57.6627 0.00502861 
94 0.012867 -0.00691224 -0.0108527 0 0.0194823 -0.0124085 -0.00135086 68.4193 0.00601547 
98 0.0103677 -0.00556959 -0.00874466 0 0.0158135 -0.0100719 0.000918149 41.7592 0.00455428 
102 0.0123783 -0.0066497 -0.0104405 0 0.0145666 -0.00927766 0.00111207 41.8593 0.00325075 
106 0.012055 -0.00647604 -0.0101678 0 0.0153392 -0.00976973 0.00174857 47.0245 0.00333815 
110 0.0161529 -0.00867741 -0.0136242 0 0.0228894 -0.0145785 0.000233771 72.111 0.00486986 
114 0.0102013 -0.00548024 -0.00860426 0 0.0183068 -0.01166 0.00238949 65.3539 0.00395935 
118 0 0 0 0 0 0 0 0 0 
122 0.000145678 -0.000145678 0 0 0 -8.36368e-05 -2.14953e-05 0.0372714 -2.93716e-05 
126 0 0 0 0 0 0 0 0 0 
130 0 0 0 0 0 0 0 0 0 
134 0 0 0 0 0 0 0 0 0 
3 9.09601 9.09479 0.149376 0 -0.000789979 0.0480979 -0.00508295 11780.8 0.352367 
7 8.97888 8.97649 -0.207316 0 0.00485307 0.210131 0.00512633 11928 0.904999 
11 8.78543 8.76822 -0.549655 0 0.0196751 0.313862 0.00431176 11765 1.43001 
15 8.72438 8.67894 -0.889354 0 0.0452763 0.441837 0.0029314 11786.4 1.95887 
19 8.64361 8.55706 -1.2201 0 0.0837734 0.587537 -0.00191138 11951.1 2.47206 
23 8.48155 8.34279 -1.52791 0 0.129446 0.706811 -0.0048342 11789.8 2.94242 
27 8.31006 8.10856 -1.81888 0 0.186796 0.832733 -0.0127998 11768.4 3.38509 
31 8.13016 7.85655 -2.09143 0 0.252252 0.9476 0.000104498 11722.7 3.7974 
35 7.92888 7.57551 -2.34068 0 0.332705 1.07679 -0.0175794 11596 4.17484 
39 7.61994 7.18577 -2.53538 0 0.419595 1.18922 0.0160219 11460.8 4.46273 
43 7.2958 6.77886 -2.69735 0 0.513423 1.29031 -0.00641048 11275.6 4.70246 
47 6.83758 6.24829 -2.77695 0 0.663356 1.49259 0.00851474 11310.4 4.85202 
51 4.3756 3.3706 -2.79015 0 1.30145 1.5722 0.0115049 9455.21 3.45039 
55 0.630935 0.0662218 -0.62745 0 0.673458 0.0710776 0.00393418 2127.33 0.566377 
59 0.0374712 -0.0201299 -0.0316051 0 0.0391064 -0.0249076 -0.0025599 133.041 0.0147226 
63 0.0331792 -0.0178239 -0.0279852 0 0.0384192 -0.0244694 0.000810434 119.9 0.015279 
67 0.0242196 -0.0130109 -0.020428 0 0.0283581 -0.0180618 0.00288545 92.519 0.010864 
71 0.0226645 -0.0121758 -0.0191162 0 0.0265824 -0.0169312 0.000449915 76.2739 0.00970902 
75 0.0224896 -0.0120817 -0.0189688 0 0.0274767 -0.0175006 -0.000682774 91.7165 0.00985204 
79 0.0203749 -0.0109456 -0.0171852 0 0.0225774 -0.0143799 0.00210056 77.8834 0.00704841 
83 0.0165301 -0.00887995 -0.0139424 0 0.0181 -0.0115279 -0.0039154 58.9524 0.00527385 
87 0.0133678 -0.00718127 -0.011275 0 0.0164654 -0.0104871 0.000201444 47.1775 0.00499496 
91 0.0154128 -0.00827988 -0.0129999 0 0.0200719 -0.0127842 -0.000100011 58.7086 0.00594359 
95 0.0193787 -0.0104103 -0.0163449 0 0.0291189 -0.0185462 0.00034137 101.819 0.00879424 
99 0.0153481 -0.00824506 -0.0129453 0 0.0165849 -0.0105631 -0.00223541 52.339 0.00363689 
103 0.0119912 -0.00644172 -0.010114 0 0.0160523 -0.0102239 0.00128313 57.1994 0.00386456 
107 0.0102657 -0.00551491 -0.00865851 0 0.0104516 -0.00665701 1.5565e-05 31.0874 0.00181742 
111 0.01893 -0.0101696 -0.0159664 0 0.0282503 -0.0179937 0.000330781 77.9961 0.00604201 
115 0.0098289 -0.00528016 -0.00829018 0 0.0134726 -0.00858094 0.00274968 47.6581 0.00245929 
119 0.000561615 -0.000561615 0 0 0 0.000130369 -0.000222463 0.464516 -0.000140409 
123 0.000216401 -0.000216401 0 0 0 1.5188e-05 -5.93487e-05 0.259264 -4.01403e-05 
127 0.00059352 -0.00059352 0 0 0 1.27768e-05 -0.000739942 0.97566 -7.17994e-05 
131 0 0 0 0 0 0 0 0 0 
4 9.04351 9.04332 0.0591653 0 -0.000729365 0.111482 -0.00160174 11834.7 0.490574 
8 8.85915 8.85434 -0.291936 0 0.00782511 0.237333 -0.000265764 11777.3 1.03035 
12 8.79498 8.7719 -0.636829 0 0.0252717 0.348101 0.00200414 11842.2 1.56761 
16 8.73975 8.68499 -0.976777 0 0.0527051 0.468626 0.00324331 12033 2.0966 
20 8.56841 8.47027 -1.29308 0 0.0909427 0.595718 0.0106335 11800.7 2.58059 
24 8.47249 8.3184 -1.60851 0 0.142505 0.736968 -0.00368084 11947.6 3.06739 
28 8.2774 8.05846 -1.89118 0 0.202192 0.861559 0.00505589 11790.3 3.49579 
32 8.07699 7.78428 -2.15468 0 0.271719 0.981649 0.00184897 11723.9 3.89318 
36 7.81664 7.44512 -2.3812 0 0.352402 1.10183 -0.0134917 11562.1 4.23167 
40 7.52986 7.07577 -2.57532 0 0.431412 1.18532 0.00632538 11307.3 4.51472 
44 7.18765 6.65176 -2.72331 0 0.542292 1.32457 -0.00233077 11208.1 4.74257 
48 6.59087 5.99614 -2.73602 0 0.705146 1.54536 0.00445944 11180.6 4.79914 
52 3.0239 1.91497 -2.34027 0 1.38492 1.13324 0.00616914 7311.79 2.47132 
56 0.299426 -0.0264403 -0.298257 0 0.33835 -0.0299946 0.0023897 1031.72 0.238861 
60 0.0364125 -0.0195612 -0.030712 0 0.037495 -0.0238815 -0.0042749 132.139 0.0137617 
64 0.0311478 -0.0167334 -0.0262712 0 0.0352861 -0.0224753 -0.00324612 102.281 0.0136061 
68 0.0249894 -0.0134248 -0.0210771 0 0.0250252 -0.0159395 0.00219815 100.09 0.00811322 
72 0.0241986 -0.0129996 -0.0204103 0 0.028149 -0.0179285 0.000418777 101.131 0.0100806 
76 0.0200726 -0.0107832 -0.0169302 0 0.0245648 -0.0156458 -0.0015415 80.5147 0.00870227 
80 0.0168874 -0.00907192 -0.0142438 0 0.0200437 -0.0127659 5.26254e-06 71.6674 0.00655536 
84 0.0136748 -0.00734621 -0.011534 0 0.0174454 -0.0111113 -0.00217298 61.2282 0.00569081 
88 0.0161111 -0.00865505 -0.0135889 0 0.0220394 -0.0140374 -0.000397949 63.6128 0.00708727 
92 0.0169793 -0.00912125 -0.0143213 0 0.0250759 -0.0159708 0.000862024 78.0482 0.00790631 
96 0.017224 -0.00925281 -0.0145276 0 0.0241247 -0.0153653 0.00180862 79.3003 0.00686444 
100 0.0151819 -0.00815602 -0.0128051 0 0.0195601 -0.0124585 -0.00324005 59.5196 0.00487641 
104 0.0134035 -0.00720062 -0.0113051 0 0.0195022 -0.0124217 0.00333 57.6143 0.0048422 
108 0.00731141 -0.00392773 -0.00616682 0 0.00831388 -0.00529522 -0.00132623 29.749 0.00157746 
112 0.0116912 -0.00628056 -0.00986093 0 0.0157604 -0.010038 0.000287737 48.7991 0.00308731 
116 0.00863304 -0.00463775 -0.00728153 0 0.0115117 -0.00733205 -0.000413437 41.8564 0.00200512 
120 0 0 0 0 0 0 0 0 0 
124 0 0 0 0 0 0 0 0 0 
128 0 0 0 0 0 0 0 0 0 
132 0.000580275 -0.000580275 0 0 0 -0.000229966 -0.000930198 1.51309 -2.33991e-05 
