ITEM: TIMESTEP
17000
ITEM: NUMBER OF SURFS
134
ITEM: BOX BOUNDS oo ao pp
-10 10
0 10
-0.5 0.5
ITEM: SURFS id f_avg_pressure[1] f_avg_pressure[2] f_avg_pressure[3] f_avg_pressure[4] f_avg_shear[1] f_avg_shear[2] f_avg_shear[3] f_avg_heat_flux[*] f_avg_fdrag[*] 
1 9.13811 9.13213 0.330561 0 -7.50116e-05 0.00207228 0.000639159 11349.9 0.0707523 
5 9.01432 9.01427 -0.0299408 0 0.000437432 0.131698 0.0147676 11777.4 0.628838 
9 8.84455 8.83643 -0.378891 0 0.0107769 0.251336 0.00785147 11733.6 1.16569 
13 8.78594 8.75615 -0.722835 0 0.0322434 0.390585 0.000470142 11902.2 1.70191 
17 8.66943 8.60513 -1.05391 0 0.0635977 0.519273 -0.00220308 11936.3 2.21354 
21 8.50666 8.39613 -1.36683 0 0.102791 0.631421 0.00206635 11702.1 2.69201 
25 8.39555 8.2267 -1.67532 0 0.156185 0.76695 0.00171366 11748.5 3.16665 
29 8.21298 7.97677 -1.95554 0 0.219499 0.895352 0.00156803 11689 3.59211 
33 7.98912 7.67815 -2.20726 0 0.28725 0.999229 0.00567479 11549.7 3.96838 
37 7.75569 7.36335 -2.43551 0 0.371093 1.12194 -0.00116472 11474.8 4.31155 
41 7.43242 6.95874 -2.6109 0 0.459869 1.22567 0.00422737 11258.7 4.56938 
45 7.06215 6.50893 -2.74005 0 0.579475 1.37653 0.00330949 11185.3 4.77438 
49 6.33717 5.73904 -2.6876 0 0.760215 1.62335 0.0089185 11177.4 4.74591 
53 1.95083 0.92195 -1.71922 0 1.25067 0.670682 -0.0155045 5196.35 1.64484 
57 0.137478 -0.0382486 -0.13205 0 0.160333 -0.0464406 -0.00331064 498.065 0.0931649 
61 0.0382924 -0.020571 -0.0322977 0 0.0418653 -0.0266647 7.41717e-05 133.705 0.016159 
65 0.0271448 -0.0145824 -0.0228953 0 0.0324112 -0.0206433 -0.00151386 105.643 0.0129236 
69 0.0210731 -0.0113205 -0.0177742 0 0.0254937 -0.016237 0.00118618 79.0688 0.00979243 
73 0.022096 -0.0118701 -0.0186369 0 0.0261694 -0.0166678 0.000393516 83.27 0.0093935 
77 0.0224747 -0.0120734 -0.0189564 0 0.0256296 -0.0163236 0.00264173 92.1178 0.00844494 
81 0.018175 -0.00976378 -0.0153297 0 0.0231514 -0.0147456 -9.35914e-05 77.6463 0.00788495 
85 0.0193233 -0.0103807 -0.0162982 0 0.0265246 -0.016894 0.00024384 88.073 0.00895984 
89 0.0159291 -0.00855731 -0.0134354 0 0.022194 -0.0141359 0.00101651 72.6477 0.00710522 
93 0.0152696 -0.00820317 -0.012879 0 0.0186348 -0.0118693 -0.000508892 55.3717 0.00508077 
97 0.0167948 -0.00902247 -0.0141654 0 0.0224793 -0.0143179 0.00187694 71.324 0.00609704 
101 0.010681 -0.0057379 -0.00900891 0 0.0152494 -0.00971257 -0.00111128 47.974 0.0039863 
105 0.0103062 -0.00553655 -0.0086928 0 0.0125442 -0.00798957 -0.000394438 39.5833 0.00269885 
109 0.0134931 -0.00724856 -0.0113808 0 0.016492 -0.0105039 -0.000534393 55.2956 0.00324585 
113 0.0117024 -0.00628663 -0.00987042 0 0.0177155 -0.0112833 -0.000571985 54.0066 0.003625 
117 0.000187339 -0.000187339 0 0 0 2.31193e-05 -0.000141543 0.293735 -5.28799e-05 
121 7.9202e-05 -7.9202e-05 0 0 0 -5.37048e-05 -1.69482e-05 0.0900941 -1.72463e-05 
125 0.000629789 -0.000629789 0 0 0 -0.000400274 0.00031898 1.77469 -9.65036e-05 
129 0 0 0 0 0 0 0 0 0 
133 0.00183472 -0.00183472 0 0 0 -0.00147299 0.00151214 4.17002 -4.439e-05 
2 9.09147 9.08833 0.239033 0 -0.000639593 0.0243181 -0.0014226 11556.6 0.211247 
6 8.95349 8.95271 -0.118216 0 0.00212247 0.160738 -0.000760509 11756.6 0.763503 
10 8.81687 8.80462 -0.464638 0 0.0146052 0.276761 -0.00163411 11716.9 1.29859 
14 8.73711 8.69998 -0.804649 0 0.0376727 0.407323 0.00353237 11763.2 1.82704 
18 8.62784 8.55306 -1.13342 0 0.0716666 0.540815 0.00233562 11799.1 2.33496 
22 8.48854 8.36434 -1.4468 0 0.114531 0.662133 -0.0131245 11821.2 2.8153 
26 8.34551 8.16083 -1.74599 0 0.167897 0.78476 -0.00687292 11760.5 3.27254 
30 8.18754 7.93244 -2.02787 0 0.233446 0.913174 0.00628047 11680.9 3.70162 
34 7.9461 7.61478 -2.2706 0 0.306136 1.02667 0.0085986 11492.8 4.06396 
38 7.71086 7.29652 -2.49361 0 0.395261 1.15657 -0.00268475 11446.8 4.40085 
42 7.37665 6.8806 -2.65939 0 0.484647 1.25392 0.0104875 11274.4 4.64318 
46 6.91405 6.34559 -2.74545 0 0.603592 1.39509 -0.00447552 11109.3 4.7798 
50 5.75869 5.05943 -2.7504 0 0.952692 1.75251 -0.00382504 11005.7 4.36688 
54 1.15636 0.340277 -1.10516 0 1.01547 0.31266 -0.00335222 3611.97 1.03407 
58 0.0603354 -0.0276205 -0.053642 0 0.0646229 -0.0332746 -0.000157022 202.02 0.0280353 
62 0.0317527 -0.0170578 -0.0267818 0 0.0377893 -0.0240686 0.000887948 122.033 0.0155559 
66 0.0278822 -0.0149782 -0.0235174 0 0.0333832 -0.0212617 0.000515427 104.685 0.0131852 
70 0.0248626 -0.0133564 -0.0209703 0 0.0291285 -0.0185525 -0.000781638 94.401 0.0107629 
74 0.0226641 -0.0121753 -0.019116 0 0.0306455 -0.0195187 0.000537835 99.8687 0.0119766 
78 0.0202117 -0.0108582 -0.0170474 0 0.0245077 -0.01561 -0.0015413 78.0471 0.00838708 
82 0.016298 -0.00875567 -0.0137464 0 0.0209809 -0.0133636 0.000832675 62.4508 0.00709654 
86 0.0158661 -0.00852347 -0.0133822 0 0.0199058 -0.0126785 -0.000757984 61.0144 0.00622068 
90 0.0153782 -0.00826127 -0.0129707 0 0.0169627 -0.0108038 -0.000917161 52.0537 0.00445971 
94 0.0134202 -0.00720941 -0.0113193 0 0.0178649 -0.0113784 -0.000282892 59.1211 0.00509925 
98 0.0127646 -0.00685721 -0.0107663 0 0.0172975 -0.011017 0.00181706 49.8186 0.00464156 
102 0.0138697 -0.00745088 -0.0116984 0 0.0172295 -0.0109737 -0.000212774 56.0501 0.00401518 
106 0.0143562 -0.00771222 -0.0121087 0 0.0168549 -0.0107351 0.00176926 54.7806 0.00344345 
110 0.0138361 -0.0074328 -0.0116701 0 0.0181973 -0.0115901 -0.00104543 58.2603 0.00368853 
114 0.0109703 -0.00589335 -0.00925288 0 0.0185647 -0.0118243 0.00111892 69.6746 0.00391146 
118 0.000464929 -0.000464929 0 0 0 -0.000289942 -0.000366073 0.562555 -0.000123736 
122 0.000102719 -0.000102719 0 0 0 -0.000116417 0.000106898 0.311265 -2.07102e-05 
126 0.000331213 -0.000331213 0 0 0 -0.000225493 -4.54326e-05 0.473321 -4.541e-05 
130 0 0 0 0 0 0 0 0 0 
134 0 0 0 0 0 0 0 0 0 
3 9.054 9.05278 0.148687 0 -0.000951027 0.0579033 -0.000588026 11651.6 0.350733 
7 8.95375 8.95136 -0.206735 0 0.00466396 0.201943 -0.0013475 11837.3 0.902448 
11 8.80617 8.78892 -0.550953 0 0.0196589 0.313604 -0.00583396 11728.3 1.43338 
15 8.70202 8.65669 -0.887075 0 0.0454589 0.443619 0.00131242 11733.9 1.95392 
19 8.63762 8.55113 -1.21925 0 0.0826156 0.579417 -0.00111878 11893.6 2.47003 
23 8.44981 8.31157 -1.52219 0 0.127513 0.696258 -0.00212456 11683.7 2.93091 
27 8.28142 8.08062 -1.81262 0 0.182752 0.814703 -0.00449669 11681 3.37204 
31 8.1286 7.85505 -2.09103 0 0.250252 0.940084 0.00193087 11636.8 3.79576 
35 7.90462 7.55234 -2.33352 0 0.32773 1.06068 -0.00460045 11524.9 4.15998 
39 7.62491 7.19046 -2.53703 0 0.417385 1.18295 0.00518312 11398.9 4.46418 
43 7.30866 6.79082 -2.70211 0 0.512949 1.28912 0.00144428 11280.3 4.70986 
47 6.81144 6.2244 -2.76633 0 0.657775 1.48003 0.00650964 11208.6 4.83133 
51 4.34206 3.34477 -2.76876 0 1.28834 1.55636 0.00894159 9343.17 3.42162 
55 0.632326 0.0663679 -0.628834 0 0.671471 0.0708678 -0.00105866 2159.54 0.564967 
59 0.0341868 -0.0183654 -0.0288348 0 0.0353855 -0.0225376 -0.00200022 118.81 0.0132047 
63 0.0302668 -0.0162593 -0.0255287 0 0.0357459 -0.0227667 0.00283971 116.929 0.0144565 
67 0.0244341 -0.0131262 -0.0206089 0 0.0288801 -0.0183942 0.000133136 89.6906 0.0111519 
71 0.0241724 -0.0129858 -0.020388 0 0.0288439 -0.0183717 -0.000615317 88.6421 0.0106872 
75 0.0235016 -0.0126253 -0.0198223 0 0.028522 -0.0181663 -2.50327e-05 98.4683 0.0101731 
79 0.0182185 -0.00978715 -0.0153664 0 0.0228003 -0.0145219 0.000511679 73.2234 0.00788547 
83 0.0165124 -0.00887042 -0.0139275 0 0.0184418 -0.0117456 -0.00172866 59.1914 0.00547479 
87 0.0135811 -0.00729587 -0.011455 0 0.0145178 -0.00924668 0.000286923 43.2963 0.0038855 
91 0.0175739 -0.00944087 -0.0148227 0 0.0228278 -0.0145395 -0.000790283 68.8132 0.00674752 
95 0.0159803 -0.0085847 -0.0134786 0 0.0217064 -0.0138251 -0.00135527 72.1554 0.00616803 
99 0.0127757 -0.00686316 -0.0107757 0 0.0153379 -0.00976894 -0.00185793 48.4979 0.00369576 
103 0.0114266 -0.00613842 -0.00963776 0 0.016395 -0.0104422 0.000910524 51.4108 0.00412429 
107 0.00965451 -0.00518658 -0.00814303 0 0.0139231 -0.0088681 -0.00121319 48.4012 0.00321628 
111 0.0140096 -0.00752623 -0.0118163 0 0.0205822 -0.0131096 -0.000443758 59.094 0.00436291 
115 0.0107092 -0.00575306 -0.00903265 0 0.0140836 -0.0089701 0.00126546 57.7341 0.00250075 
119 0.000477962 -0.000477962 0 0 0 2.29048e-05 -0.00017113 0.205203 -0.000119495 
123 0.0001082 -0.0001082 0 0 0 7.59398e-06 -2.96743e-05 0.129632 -2.00702e-05 
127 0.000486418 -0.000486418 0 0 0 -0.000219213 -0.000639659 0.550726 -5.8843e-05 
131 0.000563758 -0.000563758 0 0 -2.2612e-19 -0.000407883 0.00056583 0.933204 -3.18263e-05 
4 9.0251 9.0249 0.0590448 0 -0.000668653 0.102202 -0.00404782 11734.9 0.489579 
8 8.88181 8.87699 -0.292683 0 0.00744781 0.22589 -0.00172523 11737 1.03294 
12 8.77517 8.75214 -0.635394 0 0.0253353 0.348977 0.00922067 11774.7 1.5641 
16 8.70072 8.64621 -0.972415 0 0.052333 0.465317 -0.00272551 11849.5 2.0872 
20 8.57126 8.4731 -1.29351 0 0.0930809 0.609725 0.00597174 11786.6 2.58209 
24 8.45812 8.30429 -1.60578 0 0.140673 0.72749 -0.00585403 11845.3 3.06161 
28 8.27087 8.0521 -1.88968 0 0.197489 0.841516 0.00336392 11690.9 3.4911 
32 8.05967 7.7676 -2.15006 0 0.27184 0.982087 4.17702e-05 11636.1 3.88517 
36 7.80449 7.43355 -2.37749 0 0.350378 1.0955 -0.00809331 11478.4 4.22429 
40 7.54276 7.08789 -2.57974 0 0.43121 1.18476 0.00383989 11308.2 4.52188 
44 7.17705 6.64195 -2.71929 0 0.543924 1.32855 -0.00592945 11163.8 4.73718 
48 6.58335 5.9893 -2.7329 0 0.701231 1.53679 0.00635003 11136.9 4.79144 
52 3.01936 1.9121 -2.33675 0 1.38223 1.13104 0.000620924 7268.7 2.46715 
56 0.306359 -0.0270526 -0.305163 0 0.348268 -0.0308738 0.00686076 1077.23 0.245987 
60 0.0385007 -0.020683 -0.0324733 0 0.0398119 -0.0253571 -0.0016213 135.709 0.0146787 
64 0.0308639 -0.0165809 -0.0260318 0 0.035755 -0.022774 -0.00255928 104.96 0.0140618 
68 0.0244417 -0.0131306 -0.0206152 0 0.0272748 -0.0173724 0.00245715 94.7668 0.0098924 
72 0.0235481 -0.0126502 -0.0198617 0 0.028148 -0.0179279 -0.000690788 93.7566 0.0103124 
76 0.0190767 -0.0102482 -0.0160902 0 0.0238613 -0.0151977 -0.000913585 84.7827 0.00859586 
80 0.0170012 -0.00913302 -0.0143397 0 0.0206329 -0.0131411 6.31537e-05 65.3192 0.00687088 
84 0.0162226 -0.00871492 -0.0136829 0 0.0222557 -0.0141751 -0.000806573 69.5884 0.0076301 
88 0.0153628 -0.00825307 -0.0129578 0 0.0219679 -0.0139918 -0.00132508 68.3412 0.00726225 
92 0.0179601 -0.00964811 -0.0151485 0 0.0257482 -0.0163991 0.00161083 80.2992 0.00797842 
96 0.0181798 -0.00976625 -0.0153338 0 0.0254417 -0.0162041 0.000163775 80.9846 0.00723535 
100 0.0129154 -0.00693842 -0.0108934 0 0.0166787 -0.0106232 -0.00157809 51.4137 0.00416493 
104 0.0131439 -0.00706115 -0.0110861 0 0.0201036 -0.0128048 0.00122246 60.0578 0.00513384 
108 0.00964181 -0.00517963 -0.0081324 0 0.014264 -0.00908494 -0.00080987 40.1035 0.00326715 
112 0.0116473 -0.00625699 -0.00982393 0 0.0166912 -0.0106309 -0.00105063 49.8705 0.00339813 
116 0.0123601 -0.00663996 -0.0104251 0 0.0160604 -0.0102291 -0.00126093 53.27 0.0027479 
120 4.38389e-05 -4.38389e-05 0 0 0 -5.09068e-06 -1.59653e-05 0.011488 -1.0253e-05 
124 0 0 0 0 0 0 0 0 0 
128 0.00036879 -0.00036879 0 0 0 0.000518602 -0.000121912 1.46532 -3.8665e-05 
132 0.000290137 -0.000290137 0 0 0 -0.000114983 -0.000465099 0.756547 -1.16995e-05 
