ITEM: TIMESTEP
22000
ITEM: NUMBER OF SURFS
134
ITEM: BOX BOUNDS oo ao pp
-10 10
0 10
-0.5 0.5
ITEM: SURFS id f_avg_pressure[1] f_avg_pressure[2] f_avg_pressure[3] f_avg_pressure[4] f_avg_shear[1] f_avg_shear[2] f_avg_shear[3] f_avg_heat_flux[*] f_avg_fdrag[*] 
1 9.0763 9.07036 0.328325 0 0.000299335 -0.00826948 -0.00527062 11219.7 0.0702766 
5 8.99156 8.99151 -0.0298652 0 0.000418966 0.126138 0.00940068 11722.4 0.627249 
9 8.85112 8.843 -0.379173 0 0.0105812 0.246772 0.00550231 11712.4 1.16653 
13 8.78187 8.7521 -0.722501 0 0.032089 0.388714 -0.00644608 11853.2 1.70109 
17 8.66628 8.602 -1.05352 0 0.0620779 0.506865 0.00272051 11872.3 2.21236 
21 8.52099 8.41028 -1.36913 0 0.102079 0.627048 -0.000349492 11709.8 2.69626 
25 8.39426 8.22543 -1.67506 0 0.155142 0.761832 -0.00304639 11713.6 3.16577 
29 8.22243 7.98595 -1.95779 0 0.21904 0.893477 0.002848 11689.2 3.59593 
33 7.97403 7.66365 -2.20309 0 0.286766 0.997544 0.00640529 11493 3.96091 
37 7.75732 7.36491 -2.43602 0 0.3696 1.11743 -0.00151826 11443.6 4.31159 
41 7.45709 6.98184 -2.61956 0 0.460168 1.22647 0.00308583 11268 4.58379 
45 7.04293 6.4912 -2.73259 0 0.574314 1.36427 0.000338928 11109 4.75897 
49 6.34621 5.74722 -2.69143 0 0.76062 1.62421 0.00714171 11160.8 4.75218 
53 1.95206 0.922534 -1.72031 0 1.24647 0.668433 -0.00283938 5199.74 1.64211 
57 0.137956 -0.0383816 -0.132509 0 0.160431 -0.0464691 -9.33241e-05 494.813 0.0931385 
61 0.0376992 -0.0202523 -0.0317973 0 0.0416535 -0.0265298 0.000377757 133.323 0.0162402 
65 0.0288767 -0.0155128 -0.024356 0 0.0338555 -0.0215632 -6.04156e-05 109.951 0.0132961 
69 0.0225068 -0.0120906 -0.0189834 0 0.026206 -0.0166907 -0.000293489 83.9749 0.00975241 
73 0.0220184 -0.0118285 -0.0185714 0 0.0258706 -0.0164774 -0.000735987 84.4124 0.00922457 
77 0.0218424 -0.0117337 -0.0184231 0 0.0252318 -0.0160702 0.00237201 85.1172 0.0084087 
81 0.0194211 -0.0104332 -0.0163807 0 0.0257647 -0.01641 0.000552469 83.8578 0.00902987 
85 0.0177008 -0.00950902 -0.0149297 0 0.0241006 -0.0153502 0.00122905 79.0994 0.00809831 
89 0.0161227 -0.00866133 -0.0135987 0 0.0211123 -0.0134469 6.15602e-05 67.218 0.0064874 
93 0.0156303 -0.00839696 -0.0131833 0 0.0194817 -0.0124087 -0.00105958 56.7886 0.00539887 
97 0.0160043 -0.00859783 -0.0134987 0 0.0206688 -0.0131647 0.00086301 64.5332 0.00546916 
101 0.0121991 -0.00655345 -0.0102894 0 0.0162851 -0.0103722 0.000841491 50.8717 0.00407855 
105 0.011157 -0.00599357 -0.00941036 0 0.014878 -0.00947598 0.000291008 44.9068 0.00342164 
109 0.011686 -0.0062778 -0.00985661 0 0.0144645 -0.00921262 -8.30398e-05 47.0746 0.00287478 
113 0.0117338 -0.0063035 -0.0098969 0 0.0161893 -0.0103112 -0.000868163 49.2158 0.00313556 
117 0.000520479 -0.000520479 0 0 0 0.00033901 3.30778e-05 1.43969 -0.000146915 
121 0.000201592 -0.000201592 0 0 0 -6.40672e-05 -0.000131262 0.249272 -4.38967e-05 
125 0.000410358 -0.000410358 0 0 0 5.83553e-06 5.13981e-05 1.12993 -6.28799e-05 
129 0.000319402 -0.000319402 0 0 0 -3.85665e-05 -4.3299e-05 0.337544 -2.83351e-05 
133 0.000815431 -0.000815431 0 0 0 -0.000654662 0.00067206 1.85334 -1.97289e-05 
2 9.06606 9.06293 0.238365 0 -0.000860485 0.0327167 -0.00539663 11468.2 0.210652 
6 8.94108 8.9403 -0.118052 0 0.00212424 0.160872 -0.000884126 11708 0.762446 
10 8.82507 8.8128 -0.46507 0 0.0147604 0.279701 -0.00107751 11698.7 1.29982 
14 8.72797 8.69088 -0.803807 0 0.0378051 0.408755 0.00575974 11725.5 1.82517 
18 8.61747 8.54279 -1.13205 0 0.0711245 0.536724 0.00119767 11724.4 2.33204 
22 8.50049 8.37611 -1.44884 0 0.113794 0.657875 -0.00626393 11826.3 2.81897 
26 8.34465 8.15999 -1.74581 0 0.168387 0.787048 -0.00618529 11733.1 3.2724 
30 8.18453 7.92952 -2.02712 0 0.232209 0.908335 0.00309598 11645 3.69974 
34 7.93246 7.60171 -2.26671 0 0.305344 1.02401 0.0064067 11440.6 4.05685 
38 7.68816 7.27504 -2.48626 0 0.392753 1.14923 -0.00133509 11385.2 4.38713 
42 7.37524 6.87928 -2.65888 0 0.483476 1.25089 0.00987971 11240.9 4.64161 
46 6.9078 6.33986 -2.74297 0 0.602499 1.39257 0.00092751 11058 4.77511 
50 5.75411 5.0554 -2.74821 0 0.950651 1.74875 -0.0045864 10985.4 4.36247 
54 1.15921 0.341116 -1.10789 0 1.01514 0.312558 -0.00227791 3594.34 1.03446 
58 0.0625196 -0.0286204 -0.0555839 0 0.0697675 -0.0359236 -0.00123414 215.912 0.0311756 
62 0.0325608 -0.0174919 -0.0274634 0 0.0359967 -0.0229268 0.00114042 116.14 0.0138851 
66 0.0276654 -0.0148617 -0.0233346 0 0.0333364 -0.0212319 0.00039143 105.451 0.0132351 
70 0.0242287 -0.0130159 -0.0204357 0 0.0287428 -0.0183068 -0.00130874 93.3986 0.0107321 
74 0.0221518 -0.0119002 -0.018684 0 0.0279522 -0.0178033 0.000156713 88.9562 0.0104086 
78 0.0196709 -0.0105676 -0.0165912 0 0.0244042 -0.015544 -0.00134882 75.3675 0.00850201 
82 0.0170593 -0.00916463 -0.0143885 0 0.0225477 -0.0143616 -0.0004344 68.5282 0.00776869 
86 0.0165371 -0.00888392 -0.0139482 0 0.0216553 -0.0137928 0.00131693 65.9598 0.00697979 
90 0.0167801 -0.00901439 -0.0141531 0 0.0211136 -0.0134477 -0.000304632 66.5274 0.00620122 
94 0.0141951 -0.00762568 -0.0119729 0 0.0194405 -0.0123819 -0.00142579 61.9338 0.00565406 
98 0.0137158 -0.00736819 -0.0115686 0 0.0181739 -0.0115752 0.00019244 58.8318 0.00480404 
102 0.0123891 -0.0066555 -0.0104496 0 0.0151657 -0.00965921 -0.000175837 49.7157 0.00349435 
106 0.0128842 -0.00692144 -0.0108672 0 0.0175069 -0.0111504 0.00092775 55.4492 0.00398684 
110 0.0130747 -0.00702381 -0.0110279 0 0.0184633 -0.0117595 -0.00158304 61.1262 0.00391984 
114 0.0138868 -0.00746014 -0.0117128 0 0.0188971 -0.012036 -0.000631729 72.1823 0.0035304 
118 0.000392795 -0.000392795 0 0 0 -0.000181544 -6.10938e-05 0.408038 -0.000104538 
122 0.000656413 -0.000656413 0 0 0 -0.000345799 6.8067e-05 0.875077 -0.000132346 
126 0.000476642 -0.000476642 0 0 0 -0.000179447 1.27192e-05 0.514038 -6.53486e-05 
130 0.000144611 -0.000144611 0 0 0 -3.5255e-05 6.57185e-05 0.125454 -1.04963e-05 
134 0.000596471 -0.000596471 0 0 0 -0.000356862 -0.000318703 2.51712 -4.81043e-06 
3 9.02289 9.02167 0.148176 0 -0.000898649 0.0547142 -0.00361819 11556.2 0.349529 
7 8.92849 8.92611 -0.206152 0 0.00450853 0.195213 -0.00107436 11748.5 0.899888 
11 8.82289 8.8056 -0.551999 0 0.019877 0.317083 0.00145322 11717.2 1.43613 
15 8.68982 8.64455 -0.885831 0 0.044687 0.436086 0.00624029 11707.7 1.95102 
19 8.59552 8.50945 -1.21331 0 0.0817087 0.573056 0.000205448 11747.1 2.45785 
23 8.45939 8.321 -1.52392 0 0.127833 0.698002 0.00138955 11677.3 2.93429 
27 8.29773 8.09653 -1.81619 0 0.184057 0.820521 -0.00308324 11657.7 3.37907 
31 8.12623 7.85275 -2.09041 0 0.251879 0.946196 -0.000421816 11620.4 3.79545 
35 7.88622 7.53475 -2.32809 0 0.325598 1.05378 0.00417573 11477.1 4.14957 
39 7.63085 7.19607 -2.53901 0 0.416511 1.18048 0.00583418 11385.8 4.46696 
43 7.30172 6.78436 -2.69954 0 0.514468 1.29294 0.000337211 11244.2 4.70668 
47 6.80184 6.21563 -2.76243 0 0.651904 1.46682 0.00143973 11146.9 4.82105 
51 4.35136 3.35193 -2.77469 0 1.28686 1.55457 0.0061234 9361.22 3.42581 
55 0.620138 0.0650885 -0.616712 0 0.66364 0.0700413 -0.00158907 2120.3 0.557991 
59 0.0368416 -0.0197916 -0.0310741 0 0.0395768 -0.0252072 -0.00180769 129.082 0.01535 
63 0.0316286 -0.0169909 -0.0266773 0 0.0363881 -0.0231758 0.00084838 117.528 0.0143902 
67 0.0257419 -0.0138288 -0.021712 0 0.0296214 -0.0188664 0.000173633 93.5226 0.0111794 
71 0.023126 -0.0124237 -0.0195055 0 0.026918 -0.017145 0.000427631 87.5722 0.00976813 
75 0.0218411 -0.0117333 -0.0184218 0 0.0261502 -0.0166557 -0.00109492 90.1473 0.0092261 
79 0.0196575 -0.0105602 -0.0165801 0 0.0238163 -0.015169 -0.00101868 77.1217 0.00803265 
83 0.018214 -0.00978455 -0.0153627 0 0.0209491 -0.0133425 -0.000922861 68.1288 0.00638605 
87 0.0143089 -0.00768688 -0.0120689 0 0.0168616 -0.0107394 0.000213701 52.8211 0.00493609 
91 0.0174573 -0.00937823 -0.0147243 0 0.022253 -0.0141734 -0.00101575 65.6472 0.00648936 
95 0.0162137 -0.00871008 -0.0136754 0 0.0215291 -0.0137122 1.90751e-07 69.4286 0.00602577 
99 0.0145117 -0.00779576 -0.0122399 0 0.0186534 -0.0118806 -0.00142963 62.3823 0.00473491 
103 0.0118677 -0.00637539 -0.0100098 0 0.0172272 -0.0109722 0.00040523 54.6329 0.00436365 
107 0.0107452 -0.00577253 -0.00906298 0 0.0156407 -0.00996209 -0.000686991 52.4753 0.00363289 
111 0.0127604 -0.00685516 -0.0107627 0 0.0178667 -0.01138 0.000620213 56.92 0.00367971 
115 0.0115983 -0.0062307 -0.00978257 0 0.0159602 -0.0101653 0.000376586 54.009 0.0029207 
119 0.000372938 -0.000372938 0 0 0 2.0952e-05 -1.88827e-05 0.422848 -9.32379e-05 
123 0.0004629 -0.0004629 0 0 0 -1.23764e-05 -3.912e-05 0.793153 -8.58635e-05 
127 0.000481294 -0.000481294 0 0 0 -9.7951e-05 -0.000429597 0.378192 -5.82231e-05 
131 0.00052238 -0.00052238 0 0 -1.9262e-19 0.000451065 0.000482705 1.40805 -2.94903e-05 
4 9.00674 9.00655 0.0589247 0 -0.000657904 0.10056 -0.00122432 11662.7 0.488583 
8 8.90877 8.90394 -0.293571 0 0.00728005 0.220802 0.00512683 11765.6 1.03605 
12 8.78588 8.76282 -0.63617 0 0.0256171 0.352859 0.00635202 11733.5 1.56605 
16 8.69522 8.64075 -0.971801 0 0.0529956 0.471209 -0.00191649 11787 2.08605 
20 8.55181 8.45387 -1.29057 0 0.0925754 0.606414 -0.00126622 11738.3 2.57614 
24 8.44444 8.29087 -1.60318 0 0.140214 0.725118 -0.00514022 11805.4 3.05658 
28 8.26696 8.0483 -1.88879 0 0.200043 0.852402 0.00685192 11668.1 3.49057 
32 8.06915 7.77673 -2.15259 0 0.271928 0.982404 -0.00516917 11637.4 3.88963 
36 7.81863 7.44702 -2.3818 0 0.347374 1.08611 0.000278136 11453.8 4.22997 
40 7.52529 7.07147 -2.57376 0 0.431541 1.18567 0.0037329 11265.2 4.51221 
44 7.18973 6.65369 -2.72409 0 0.544378 1.32966 0.00171844 11201 4.74521 
48 6.57868 5.98505 -2.73096 0 0.697667 1.52897 0.00394902 11083.4 4.78584 
52 3.01284 1.90797 -2.3317 0 1.38192 1.13079 0.00279126 7246.34 2.46383 
56 0.307583 -0.0271606 -0.306382 0 0.352393 -0.0312395 0.00592167 1080.7 0.249063 
60 0.0396077 -0.0212777 -0.033407 0 0.0414882 -0.0264248 -0.000946948 139.71 0.0155087 
64 0.0298366 -0.016029 -0.0251653 0 0.0338459 -0.021558 -0.00168385 106.593 0.0130665 
68 0.0252227 -0.0135502 -0.0212739 0 0.0287533 -0.0183141 0.000772238 93.1404 0.010633 
72 0.0245106 -0.0131673 -0.0206735 0 0.0282059 -0.0179648 -0.000627867 90.9804 0.0100069 
76 0.0205115 -0.011019 -0.0173004 0 0.0246151 -0.0156779 -0.00075392 81.324 0.00858518 
80 0.0174097 -0.00935246 -0.0146843 0 0.021806 -0.0138883 0.00152247 70.6799 0.00744068 
84 0.0161591 -0.00868081 -0.0136294 0 0.0208196 -0.0132604 -0.000895836 66.3107 0.00684008 
88 0.0151637 -0.00814608 -0.0127898 0 0.0209775 -0.013361 0.000615663 69.5943 0.00679445 
92 0.0166565 -0.00894785 -0.0140491 0 0.022817 -0.0145322 0.000933282 71.758 0.00687285 
96 0.0168904 -0.00907359 -0.0142462 0 0.0234781 -0.0149535 0.000705113 77.7556 0.0066487 
100 0.0120618 -0.00647984 -0.0101735 0 0.0162141 -0.0103274 -6.8232e-05 52.2531 0.00416239 
104 0.0122266 -0.00656839 -0.0103125 0 0.0179771 -0.0114503 0.000120893 54.7789 0.00449073 
108 0.0110485 -0.00593533 -0.0093189 0 0.0151421 -0.00964418 -0.000793019 46.3322 0.00331115 
112 0.0112778 -0.00605849 -0.00951226 0 0.0173069 -0.011023 0.000172244 52.0798 0.00366329 
116 0.0105519 -0.00566855 -0.00889996 0 0.0142696 -0.00908859 0.00107969 47.3146 0.0025089 
120 0.000257754 -0.000257754 0 0 0 -4.87557e-05 -7.5279e-05 0.156324 -6.02833e-05 
124 0.000217648 -0.000217648 0 0 0 -0.000103743 4.57105e-05 0.307689 -3.68611e-05 
128 0.000491155 -0.000491155 0 0 0 0.000106949 0.000114682 1.38919 -5.1494e-05 
132 0.000226457 -0.000226457 0 0 0 -6.4129e-05 -0.000184454 0.330999 -9.13169e-06 
