ITEM: TIMESTEP
18000
ITEM: NUMBER OF SURFS
134
ITEM: BOX BOUNDS oo ao pp
-10 10
0 10
-0.5 0.5
ITEM: SURFS id f_avg_pressure[1] f_avg_pressure[2] f_avg_pressure[3] f_avg_pressure[4] f_avg_shear[1] f_avg_shear[2] f_avg_shear[3] f_avg_heat_flux[*] f_avg_fdrag[*] 
1 9.10044 9.09449 0.329198 0 0.000144859 -0.00400189 -0.00502042 11289.2 0.0704623 
5 9.00552 9.00547 -0.0299116 0 0.000423773 0.127585 0.0104511 11763.6 0.628223 
9 8.84731 8.83918 -0.379009 0 0.0109122 0.254493 0.0062928 11733 1.16607 
13 8.77799 8.74823 -0.722181 0 0.0322622 0.390812 -0.00566571 11871.2 1.70038 
17 8.66908 8.60478 -1.05386 0 0.0630937 0.515158 -9.91076e-05 11914.6 2.21333 
21 8.51204 8.40144 -1.3677 0 0.103035 0.632923 0.0024711 11703.8 2.69377 
25 8.40466 8.23562 -1.67713 0 0.155776 0.764945 0.00316661 11753.4 3.16986 
29 8.22483 7.98828 -1.95836 0 0.218089 0.889598 0.00248234 11704.2 3.59654 
33 7.9778 7.66728 -2.20413 0 0.286145 0.995382 0.00196689 11508.1 3.96241 
37 7.76028 7.36772 -2.43695 0 0.371981 1.12462 -0.000326754 11463.9 4.31448 
41 7.44795 6.97328 -2.61635 0 0.460129 1.22637 0.00155125 11272.1 4.57849 
45 7.05126 6.49888 -2.73583 0 0.57766 1.37222 0.00513711 11147 4.7664 
49 6.34175 5.74319 -2.68954 0 0.761382 1.62584 0.00996007 11177.4 4.74979 
53 1.9514 0.922221 -1.71973 0 1.24706 0.668746 -0.0117745 5187.8 1.64232 
57 0.139975 -0.0389433 -0.134449 0 0.160513 -0.046493 -0.000592878 497.663 0.0927727 
61 0.0373573 -0.0200686 -0.031509 0 0.0409633 -0.0260903 0.000475225 128.973 0.0158558 
65 0.027044 -0.0145282 -0.0228102 0 0.0317927 -0.0202494 -0.00127129 101.411 0.0125145 
69 0.0206011 -0.0110669 -0.0173761 0 0.0247215 -0.0157452 0.000103406 76.0994 0.00943411 
73 0.0221415 -0.0118946 -0.0186752 0 0.0263161 -0.0167612 -0.000147048 84.8778 0.00947382 
77 0.0226891 -0.0121885 -0.0191372 0 0.0259017 -0.0164968 0.00318481 90.4547 0.00854269 
81 0.0176725 -0.0094938 -0.0149058 0 0.0237942 -0.015155 -6.0372e-05 77.7226 0.00842254 
85 0.0192519 -0.0103423 -0.016238 0 0.0269138 -0.0171419 0.000567366 89.6577 0.00919713 
89 0.0159481 -0.0085675 -0.0134514 0 0.0211189 -0.0134511 0.000229533 68.813 0.00653973 
93 0.015051 -0.00808573 -0.0126946 0 0.0188546 -0.0120093 -0.000246556 55.4969 0.00524504 
97 0.0166839 -0.00896292 -0.0140719 0 0.0221452 -0.014105 0.00162187 68.6931 0.00597264 
101 0.0113527 -0.00609871 -0.00957542 0 0.0160749 -0.0102383 0.000278767 50.8465 0.00418104 
105 0.011249 -0.00604299 -0.00948795 0 0.0143475 -0.00913808 -6.24782e-05 41.6597 0.00319829 
109 0.0129228 -0.00694217 -0.0108997 0 0.015842 -0.0100899 -7.00642e-05 53.2274 0.00312518 
113 0.0116922 -0.00628112 -0.00986177 0 0.0173823 -0.0110711 -0.00167641 51.9427 0.00352105 
117 0.000207679 -0.000207679 0 0 0 4.79687e-05 -0.000215614 0.432503 -5.86212e-05 
121 0.000144099 -0.000144099 0 0 0 -4.21879e-05 -3.192e-05 0.115997 -3.13777e-05 
125 0.000503831 -0.000503831 0 0 0 -0.00032022 0.000255184 1.41975 -7.72029e-05 
129 0.000137992 -0.000137992 0 0 0 0.000231855 -6.00224e-06 0.381487 -1.22417e-05 
133 0.00146778 -0.00146778 0 0 0 -0.00117839 0.00120971 3.33602 -3.5512e-05 
2 9.0725 9.06936 0.238534 0 -0.000618669 0.0235226 -0.00337374 11511 0.210807 
6 8.94714 8.94636 -0.118132 0 0.0020981 0.158893 0.000230737 11739.8 0.762959 
10 8.81341 8.80116 -0.464455 0 0.0145925 0.276519 -0.00057436 11699 1.29808 
14 8.73373 8.69662 -0.804337 0 0.0378675 0.409429 0.00850963 11756.4 1.82638 
18 8.62838 8.55361 -1.13349 0 0.0716925 0.541011 -0.000500969 11781.4 2.33512 
22 8.49824 8.37389 -1.44845 0 0.114511 0.662022 -0.00863909 11821.9 2.81847 
26 8.34452 8.15985 -1.74578 0 0.168222 0.786278 -0.00465047 11760.8 3.27228 
30 8.184 7.92901 -2.02699 0 0.23277 0.910532 0.00719092 11654.1 3.69976 
34 7.9456 7.6143 -2.27046 0 0.305674 1.02512 0.01276 11461.2 4.06348 
38 7.70331 7.28938 -2.49116 0 0.395848 1.15829 -0.00134709 11429.9 4.3971 
42 7.3692 6.87365 -2.6567 0 0.482086 1.2473 0.0103814 11237.9 4.63719 
46 6.9049 6.3372 -2.74182 0 0.602926 1.39355 -0.00480379 11078.6 4.77357 
50 5.75781 5.05866 -2.74998 0 0.952582 1.7523 -0.00589767 11002.1 4.36624 
54 1.1575 0.340612 -1.10625 0 1.01265 0.311794 -0.00592826 3597.34 1.03218 
58 0.0623493 -0.0285424 -0.0554325 0 0.0663759 -0.0341772 -0.000890422 208.418 0.0286649 
62 0.0320903 -0.0172391 -0.0270665 0 0.0382515 -0.0243629 0.000937828 124.147 0.0157666 
66 0.0269498 -0.0144773 -0.022731 0 0.0322444 -0.0205364 -4.87868e-05 100.766 0.0127282 
70 0.0247453 -0.0132934 -0.0208714 0 0.0298569 -0.0190164 -0.00195142 97.7203 0.011303 
74 0.0217632 -0.0116913 -0.0183561 0 0.0283569 -0.018061 0.000970676 90.9039 0.0108064 
78 0.0190805 -0.0102505 -0.0160932 0 0.0232136 -0.0147857 -0.00132427 73.0363 0.00796531 
82 0.0167118 -0.00897797 -0.0140954 0 0.021436 -0.0136535 0.000567337 66.3795 0.00723169 
86 0.0171115 -0.00919253 -0.0144327 0 0.0208829 -0.0133008 0.000352626 64.3586 0.00638901 
90 0.0165004 -0.00886414 -0.0139172 0 0.0185472 -0.0118131 -0.00151664 57.6268 0.00496288 
94 0.0135974 -0.00730462 -0.0114688 0 0.0177341 -0.0112951 -0.000414223 57.5443 0.00499113 
98 0.0132655 -0.0071263 -0.0111888 0 0.017998 -0.0114631 0.00174509 54.9501 0.00483335 
102 0.0129275 -0.00694474 -0.0109038 0 0.015835 -0.0100855 -0.000279628 52.4346 0.00365043 
106 0.0146195 -0.00785367 -0.0123308 0 0.0185238 -0.0117981 0.0026684 59.1339 0.00401874 
110 0.0135149 -0.00726026 -0.0113992 0 0.0181258 -0.0115445 -0.0017893 60.0108 0.00372317 
114 0.0133012 -0.00714556 -0.0112189 0 0.0212276 -0.0135203 -0.000391852 80.8981 0.0043469 
118 0.000409742 -0.000409742 0 0 0 -0.000273959 -0.000256698 0.476147 -0.000109048 
122 8.21749e-05 -8.21749e-05 0 0 0 -9.31333e-05 8.55181e-05 0.249012 -1.65682e-05 
126 0.000264971 -0.000264971 0 0 0 -0.000180394 -3.6346e-05 0.378656 -3.6328e-05 
130 0 0 0 0 0 0 0 0 0 
134 0.00107365 -0.00107365 0 0 0 -0.000642351 -0.000573665 4.53081 -8.65877e-06 
3 9.03847 9.03725 0.148431 0 -0.000902057 0.0549218 0.000188773 11618.8 0.350133 
7 8.94443 8.94204 -0.20652 0 0.00456264 0.197556 -0.00307878 11807.4 0.901499 
11 8.8116 8.79434 -0.551292 0 0.0198116 0.31604 -0.00214151 11718.8 1.43428 
15 8.68925 8.64398 -0.885772 0 0.0452418 0.4415 0.00184768 11710 1.95101 
19 8.6234 8.53706 -1.21725 0 0.0818378 0.573962 -0.00467268 11848.6 2.46578 
23 8.45538 8.31705 -1.52319 0 0.127778 0.697705 0.000529169 11692.5 2.9329 
27 8.2954 8.09425 -1.81568 0 0.183464 0.81788 -0.00740407 11679.9 3.3779 
31 8.1269 7.8534 -2.09059 0 0.249314 0.936562 0.00160831 11631.5 3.79455 
35 7.90133 7.54919 -2.33255 0 0.326518 1.05676 -0.00334979 11518.9 4.15768 
39 7.62974 7.19501 -2.53864 0 0.416897 1.18157 0.00304035 11395.1 4.46656 
43 7.31557 6.79724 -2.70466 0 0.513149 1.28962 -6.12435e-05 11274.5 4.71413 
47 6.797 6.2112 -2.76047 0 0.654315 1.47225 0.00249805 11164.4 4.81964 
51 4.34987 3.35078 -2.77374 0 1.28876 1.55687 0.0102659 9352.96 3.42638 
55 0.628054 0.0659194 -0.624585 0 0.672565 0.0709833 -0.000102442 2151.61 0.565461 
59 0.0367898 -0.0197638 -0.0310303 0 0.0387485 -0.0246796 -0.00241587 128.962 0.0147289 
63 0.0299778 -0.0161041 -0.025285 0 0.0351659 -0.0223973 0.0017234 112.587 0.0141414 
67 0.0240301 -0.0129092 -0.0202682 0 0.0280129 -0.0178419 -0.00110589 88.3396 0.0106917 
71 0.0228571 -0.0122792 -0.0192787 0 0.0272458 -0.0173537 -0.000160353 84.2343 0.0100864 
75 0.0226337 -0.0121591 -0.0190903 0 0.0277126 -0.0176508 -0.00056517 94.5911 0.0099535 
79 0.0186984 -0.0100449 -0.0157711 0 0.0231251 -0.0147288 0.000117671 75.3146 0.00792608 
83 0.0170403 -0.00915404 -0.0143728 0 0.0190766 -0.0121499 -0.00122762 61.3043 0.00567568 
87 0.0137264 -0.00737393 -0.0115775 0 0.0151383 -0.00964186 -0.000267913 47.0905 0.00417732 
91 0.0183828 -0.0098754 -0.0155049 0 0.023766 -0.0151371 -0.0012206 70.8475 0.00700138 
95 0.0158246 -0.00850107 -0.0133473 0 0.0206931 -0.0131797 -0.000199717 67.7744 0.00573101 
99 0.0120314 -0.00646335 -0.0101479 0 0.0149993 -0.00955327 -0.00155164 47.8497 0.00372244 
103 0.0104271 -0.00560149 -0.00879474 0 0.0152241 -0.00969645 0.000773823 47.5805 0.0038694 
107 0.0109537 -0.00588455 -0.00923884 0 0.016545 -0.0105381 -0.00103441 56.3976 0.00392457 
111 0.0128973 -0.00692869 -0.0108781 0 0.0186445 -0.0118754 3.64318e-05 54.2058 0.00391504 
115 0.0116907 -0.00628032 -0.00986049 0 0.0150687 -0.00959755 0.000501125 56.9062 0.0026382 
119 0.000525546 -0.000525546 0 0 0 0.000108347 -0.00015459 0.481557 -0.000131392 
123 0.000222232 -0.000222232 0 0 0 4.0432e-05 -5.88385e-05 0.249418 -4.1222e-05 
127 0.000500254 -0.000500254 0 0 0 -0.000225011 -0.000525677 0.540262 -6.05168e-05 
131 0.000451006 -0.000451006 0 0 -1.80896e-19 -0.000326306 0.000452664 0.746563 -2.5461e-05 
4 9.02774 9.02755 0.0590621 0 -0.00065594 0.100259 -0.000996464 11720 0.489723 
8 8.8957 8.89087 -0.29314 0 0.00736846 0.223484 -0.000293757 11760.8 1.03454 
12 8.78805 8.76498 -0.636327 0 0.0254207 0.350153 0.0120099 11777.3 1.5664 
16 8.6882 8.63376 -0.971016 0 0.0523732 0.465675 -0.00210815 11809.6 2.08423 
20 8.56797 8.46984 -1.29301 0 0.0930962 0.609825 0.00565629 11778.9 2.58111 
24 8.45837 8.30454 -1.60583 0 0.140009 0.724057 -0.00771922 11839.8 3.06146 
28 8.27428 8.05542 -1.89046 0 0.198226 0.844657 0.00854995 11684.4 3.49282 
32 8.06993 7.77748 -2.15279 0 0.272169 0.983275 -0.00194412 11642.5 3.89011 
36 7.82522 7.45329 -2.38381 0 0.350149 1.09479 -0.00598725 11496.5 4.23488 
40 7.54996 7.09466 -2.5822 0 0.432266 1.18766 0.00134053 11312.8 4.52659 
44 7.19013 6.65405 -2.72424 0 0.546677 1.33528 -0.00296362 11200.1 4.74697 
48 6.58005 5.9863 -2.73153 0 0.69883 1.53152 0.00224048 11119.2 4.78757 
52 3.01554 1.90968 -2.3338 0 1.37925 1.1286 0.00356925 7258.42 2.46311 
56 0.306261 -0.0270438 -0.305064 0 0.350252 -0.0310497 0.00775377 1072.54 0.247513 
60 0.0383753 -0.0206157 -0.0323676 0 0.03968 -0.0252732 -0.00191274 135.068 0.0146292 
64 0.0316012 -0.016977 -0.0266537 0 0.0355351 -0.0226339 -0.00247101 108.197 0.01361 
68 0.0231581 -0.012441 -0.0195325 0 0.0266381 -0.0169669 0.00204129 89.4854 0.00992943 
72 0.0243438 -0.0130777 -0.0205328 0 0.0282194 -0.0179734 -0.000751664 91.1401 0.0100755 
76 0.0195574 -0.0105064 -0.0164957 0 0.0236063 -0.0150353 -0.00196615 82.7715 0.0082718 
80 0.016709 -0.00897606 -0.0140933 0 0.0194106 -0.0123627 0.00169621 62.4339 0.00623438 
84 0.0167219 -0.00898317 -0.0141041 0 0.0219136 -0.0139572 -0.00096271 70.2947 0.00728617 
88 0.0150159 -0.0080667 -0.0126652 0 0.0210542 -0.0134099 -0.000437623 67.7662 0.00687712 
92 0.0177705 -0.00954629 -0.0149887 0 0.0245887 -0.0156605 0.00160406 78.9341 0.00745425 
96 0.0184814 -0.0099283 -0.0155882 0 0.0263953 -0.0168115 -0.000283379 81.5426 0.0076007 
100 0.0119354 -0.00641191 -0.0100668 0 0.0159469 -0.0101571 -0.00167125 50.4134 0.00407716 
104 0.0134358 -0.007218 -0.0113324 0 0.0198586 -0.0126487 0.00129467 58.1007 0.00497566 
108 0.01037 -0.00557082 -0.00874658 0 0.0148055 -0.00942981 -0.00145893 43.2017 0.0033212 
112 0.0116232 -0.00624405 -0.00980361 0 0.0163612 -0.0104206 -0.00107694 47.1163 0.00329485 
116 0.0123838 -0.00665266 -0.0104451 0 0.0152567 -0.0097173 -0.00098675 49.5041 0.00250978 
120 0.000159197 -0.000159197 0 0 0 9.62466e-05 -1.29774e-05 -0.0550562 -3.7233e-05 
124 0.000191501 -0.000191501 0 0 0 3.14289e-05 3.20029e-05 0.21905 -3.24329e-05 
128 0.000462629 -0.000462629 0 0 0 0.000652198 -0.000132344 1.40861 -4.85032e-05 
132 0.000407623 -0.000407623 0 0 0 -0.000115432 -0.000332018 0.595799 -1.6437e-05 
