ITEM: TIMESTEP
14000
ITEM: NUMBER OF CELLS
26430
ITEM: BOX BOUNDS oo ao pp
-2.5 5
0 5
-0.0005 0.0005
ITEM: CELLS id proc f_avg_n f_avg_nrho f_avg_temp_tra f_avg_temp_rot f_avg_temp_vib f_avg_vel[1] f_avg_vel[2] f_avg_vel[3] f_avg_nrho_CO2 f_avg_nrho_O2 f_avg_nrho_C2 f_avg_nrho_CO f_avg_nrho_O f_avg_nrho_C 
74753 0 21.78 2.07984e+20 299.128 292.208 297.86 4995.36 19.1367 7.62703 2.07984e+20 0 0 0 0 0 
140289 0 22.05 2.10562e+20 303.293 303.468 303.894 4999.98 33.8484 1.02223 2.10562e+20 0 0 0 0 0 
205825 0 20.73 1.97957e+20 296.895 299.229 298.775 4994.55 -2.76769 6.24055 1.97957e+20 0 0 0 0 0 
271361 0 20.9 1.9958e+20 303.651 309.128 297.701 4992.69 -2.10486 2.67172 1.9958e+20 0 0 0 0 0 
82945 0 23.38 2.23263e+20 299.785 297.414 302.713 4992.04 37.4141 3.25009 2.23263e+20 0 0 0 0 0 
148481 0 23.24 2.21926e+20 310.533 291.083 300.193 4998.77 39.5583 5.95502 2.21926e+20 0 0 0 0 0 
214017 0 20.52 1.95952e+20 301.529 308.447 303.93 4995.1 -1.18003 7.21981 1.95952e+20 0 0 0 0 0 
279553 0 20.75 1.98148e+20 297.768 306.302 293.245 4993.32 6.83843 2.54497 1.98148e+20 0 0 0 0 0 
91137 0 21 2.00535e+20 299.621 297.97 295.408 5002.7 3.88634 1.64055 2.00535e+20 0 0 0 0 0 
156673 0 20.77 1.98339e+20 305.808 292.892 293.541 5004.75 8.72049 2.62424 1.98339e+20 0 0 0 0 0 
222209 0 20.96 2.00153e+20 307.997 305.411 296.263 5003.16 -9.09267 3.89464 2.00153e+20 0 0 0 0 0 
287745 0 21.02 2.00726e+20 309.729 303.434 291.823 5004.56 -2.93073 -6.95911 2.00726e+20 0 0 0 0 0 
99329 0 20.69 1.97575e+20 304.083 306.728 298.486 5001.64 3.51781 1.22839 1.97575e+20 0 0 0 0 0 
164865 0 21.03 2.00822e+20 308.657 290.162 297.124 5007.37 1.71904 3.51255 2.00822e+20 0 0 0 0 0 
230401 0 21.07 2.01204e+20 309.518 306.418 297.91 5008.96 -6.0428 0.628424 2.01204e+20 0 0 0 0 0 
295937 0 20.33 1.94137e+20 302.802 303.15 297.873 4993.49 -10.8357 4.55387 1.94137e+20 0 0 0 0 0 
75777 0 23.8 2.27273e+20 299.435 305.023 302.682 4998.93 41.4139 -4.05605 2.27273e+20 0 0 0 0 0 
141313 0 23.92 2.28419e+20 306.14 291.306 303.508 4993.55 47.2205 6.41584 2.28419e+20 0 0 0 0 0 
206849 0 21.05 2.01013e+20 308.81 305.066 295.356 4996.87 -1.94387 5.66393 2.01013e+20 0 0 0 0 0 
272385 0 20.59 1.9662e+20 305.903 309.229 299.345 4996.42 11.5353 11.3033 1.9662e+20 0 0 0 0 0 
83969 0 23.52 2.24599e+20 302.491 295.432 301.179 5000.15 50.9685 -5.55927 2.24599e+20 0 0 0 0 0 
149505 0 23.21 2.21639e+20 305.405 294.483 302.857 4996.32 44.1028 -4.49792 2.21639e+20 0 0 0 0 0 
215041 0 20.65 1.97193e+20 304.995 307.561 295.531 4994.4 4.09205 12.9051 1.97193e+20 0 0 0 0 0 
280577 0 20.62 1.96906e+20 306.27 305.642 302.543 4994.14 10.0549 13.5356 1.96906e+20 0 0 0 0 0 
92161 0 20.23 1.93182e+20 299.632 304.546 293.062 5013.71 1.65113 2.80241 1.93182e+20 0 0 0 0 0 
157697 0 20.98 2.00344e+20 301.591 300.33 298.677 5005.44 2.24066 0.587994 2.00344e+20 0 0 0 0 0 
223233 0 20.98 2.00344e+20 306.679 303.639 292.692 5003.68 -8.75948 -7.77131 2.00344e+20 0 0 0 0 0 
288769 0 20.19 1.928e+20 308.574 301.789 301.159 5001.96 -1.56783 0.547375 1.928e+20 0 0 0 0 0 
100353 0 21.27 2.03114e+20 310.922 301.506 293.677 5013.07 1.66818 2.4135 2.03114e+20 0 0 0 0 0 
165889 0 19.89 1.89936e+20 295.77 300.961 297.984 5007.35 5.35315 -3.63204 1.89936e+20 0 0 0 0 0 
231425 0 20.56 1.96334e+20 303.5 298.19 297.594 4999.97 -6.86792 -4.6772 1.96334e+20 0 0 0 0 0 
296961 0 20.88 1.99389e+20 311.211 301.342 297.347 5003.66 -13.1262 -8.65424 1.99389e+20 0 0 0 0 0 
76801 0 21.03 2.00822e+20 290.564 294.571 303.454 4999.59 -1.63941 -3.92716 2.00822e+20 0 0 0 0 0 
142337 0 20.81 1.98721e+20 296.184 282.691 300.172 4998.97 0.779398 -4.30753 1.98721e+20 0 0 0 0 0 
207873 0 20.86 1.99198e+20 296.174 294.701 301.092 4998.26 -9.84954 1.64328 1.99198e+20 0 0 0 0 0 
273409 0 21.14 2.01872e+20 297.228 298.664 300.304 5002.2 1.35048 8.20623 2.01872e+20 0 0 0 0 0 
84993 0 20.66 1.97288e+20 301.31 287.069 299.594 5001.86 -2.42448 -4.56055 1.97288e+20 0 0 0 0 0 
150529 0 20.84 1.99007e+20 295.918 288.428 304.261 5001.27 -2.1111 -3.44915 1.99007e+20 0 0 0 0 0 
216065 0 20.36 1.94424e+20 293.46 295.088 299.323 5004.68 -8.11638 -0.822905 1.94424e+20 0 0 0 0 0 
281601 0 20.78 1.98434e+20 290.844 295.89 301.367 5002.11 3.00197 6.57178 1.98434e+20 0 0 0 0 0 
93185 0 21.05 2.01013e+20 299.887 292.487 291.113 5003.3 -8.67812 7.06304 2.01013e+20 0 0 0 0 0 
158721 0 20.92 1.99771e+20 297.507 301.683 301.129 4999.82 -3.0665 6.19065 1.99771e+20 0 0 0 0 0 
224257 0 20.98 2.00344e+20 293.787 304.052 300.151 4996.19 8.80792 1.39653 2.00344e+20 0 0 0 0 0 
289793 0 20.78 1.98434e+20 295.064 300.864 295.254 4998.22 3.61896 6.00206 1.98434e+20 0 0 0 0 0 
101377 0 21 2.00535e+20 309.833 290.609 292.369 5000.62 -6.21504 7.76046 2.00535e+20 0 0 0 0 0 
166913 0 20.67 1.97384e+20 296.827 298.415 293.551 5000.4 -0.726019 1.82078 1.97384e+20 0 0 0 0 0 
232449 0 20.39 1.9471e+20 296.416 301.679 294.739 5002.01 6.31188 4.0767 1.9471e+20 0 0 0 0 0 
297985 0 20.64 1.97097e+20 302.263 313.836 300.764 4997.71 -1.89292 5.91899 1.97097e+20 0 0 0 0 0 
77825 0 20.54 1.96143e+20 297.706 295.816 296.103 4996.79 -3.70097 -5.15151 1.96143e+20 0 0 0 0 0 
143361 0 20.77 1.98339e+20 305.701 289.196 295.915 5000.11 -4.87025 -6.10191 1.98339e+20 0 0 0 0 0 
208897 0 20.78 1.98434e+20 297.347 301.214 300.135 5007.16 -6.76226 0.470641 1.98434e+20 0 0 0 0 0 
274433 0 20.09 1.91845e+20 293.814 297.35 298.903 4998.42 7.01874 2.47268 1.91845e+20 0 0 0 0 0 
86017 0 20.4 1.94806e+20 295.428 299.653 302.24 4994.52 -5.96223 -1.32349 1.94806e+20 0 0 0 0 0 
151553 0 21.03 2.00822e+20 298.852 299.102 296.191 4994.96 -12.4982 4.02521 2.00822e+20 0 0 0 0 0 
217089 0 20.94 1.99962e+20 303.366 286.145 303.259 5005.53 3.19388 3.91177 1.99962e+20 0 0 0 0 0 
282625 0 19.99 1.9089e+20 296.367 294.064 295.198 5000.26 2.93511 1.35072 1.9089e+20 0 0 0 0 0 
94209 0 21.28 2.03209e+20 296.336 297.394 296.25 4998.61 -2.14675 5.74819 2.03209e+20 0 0 0 0 0 
159745 0 21.01 2.00631e+20 299.72 298.255 293.552 4999.53 -3.19578 2.16415 2.00631e+20 0 0 0 0 0 
225281 0 20.36 1.94424e+20 287.373 305.262 294.132 4999.42 -4.60968 -1.85002 1.94424e+20 0 0 0 0 0 
290817 0 20.16 1.92514e+20 299.502 311.29 294.618 5005.48 -4.19628 11.0849 1.92514e+20 0 0 0 0 0 
102401 0 20.7 1.9767e+20 296.321 308.968 293.778 5004.12 -6.79275 3.8408 1.9767e+20 0 0 0 0 0 
167937 0 20.56 1.96334e+20 291.374 303.532 293.883 4995.29 -3.02699 8.20657 1.96334e+20 0 0 0 0 0 
233473 0 20.34 1.94233e+20 291.174 317.143 298.111 4995.55 -3.39255 5.81375 1.94233e+20 0 0 0 0 0 
299009 0 20.28 1.9366e+20 302.089 303.268 293.976 5003.42 -2.31567 4.19719 1.9366e+20 0 0 0 0 0 
74757 0 17.71 1.69118e+20 299.851 314.064 307.498 5010.67 3.64707 8.70551 1.69118e+20 0 0 0 0 0 
140293 0 17.95 1.7141e+20 294.678 290.23 303.563 5012.22 7.67697 6.98789 1.7141e+20 0 0 0 0 0 
205829 0 19.36 1.84874e+20 308.573 308.085 303.601 5002.74 -9.68284 -3.01553 1.84874e+20 0 0 0 0 0 
271365 0 19.77 1.8879e+20 301.531 298.713 307.397 5006 8.56894 14.3786 1.8879e+20 0 0 0 0 0 
82949 0 18.51 1.76757e+20 297.246 298.913 299.196 5007.7 -5.22877 8.3357 1.76757e+20 0 0 0 0 0 
148485 0 18.1 1.72842e+20 312.972 298.686 302.737 5011.43 -0.338895 5.95736 1.72842e+20 0 0 0 0 0 
214021 0 19.24 1.83728e+20 309.688 293.954 307.204 5003.2 1.95923 2.08988 1.83728e+20 0 0 0 0 0 
279557 0 18.77 1.7924e+20 311.082 289.626 304.553 5008.21 0.154003 4.8399 1.7924e+20 0 0 0 0 0 
91141 0 19.59 1.87071e+20 305.714 299.871 296.922 5005.96 10.5494 2.22968 1.87071e+20 0 0 0 0 0 
156677 0 19.32 1.84492e+20 295.531 289.119 297.6 5007.56 7.44107 -5.46479 1.84492e+20 0 0 0 0 0 
222213 0 19.5 1.86211e+20 303.209 289.569 304.34 4998.59 12.9067 3.47397 1.86211e+20 0 0 0 0 0 
287749 0 18.77 1.7924e+20 305.268 305.73 298.299 5000.91 4.39181 6.43174 1.7924e+20 0 0 0 0 0 
99333 0 19.06 1.8201e+20 301.781 299.951 304.191 5000.15 7.15561 -2.50044 1.8201e+20 0 0 0 0 0 
164869 0 18.82 1.79718e+20 298.113 294.251 300.496 4994.73 7.42704 -4.58728 1.79718e+20 0 0 0 0 0 
230405 0 19.21 1.83442e+20 300.719 293.891 297.878 5003.19 3.34846 3.20711 1.83442e+20 0 0 0 0 0 
295941 0 19.13 1.82678e+20 308.249 304.663 303.094 5004.91 10.4746 7.25463 1.82678e+20 0 0 0 0 0 
75781 0 17.73 1.69309e+20 299.953 305.488 303.016 5008.98 -2.81945 14.9956 1.69309e+20 0 0 0 0 0 
141317 0 18.4 1.75707e+20 315.48 304.162 303.215 5013.6 -5.03795 1.73523 1.75707e+20 0 0 0 0 0 
206853 0 19.6 1.87166e+20 300.462 301.702 306.374 5000.59 7.32937 7.02243 1.87166e+20 0 0 0 0 0 
272389 0 18.74 1.78954e+20 308.977 303.289 303.541 5006 -3.73087 7.0003 1.78954e+20 0 0 0 0 0 
83973 0 17.68 1.68832e+20 315.224 302.626 304.65 5007.45 -4.05726 3.14889 1.68832e+20 0 0 0 0 0 
149509 0 18.26 1.7437e+20 312.91 300.984 304.291 5015.76 -11.7463 3.19909 1.7437e+20 0 0 0 0 0 
215045 0 18.74 1.78954e+20 303.939 290.134 300.084 5005.29 6.78914 7.09977 1.78954e+20 0 0 0 0 0 
280581 0 18.69 1.78476e+20 297.277 302.187 302.83 5007.1 5.86815 9.7809 1.78476e+20 0 0 0 0 0 
92165 0 18.93 1.80768e+20 293.451 290.901 299.237 5010.23 10.7865 -7.41747 1.80768e+20 0 0 0 0 0 
157701 0 18.56 1.77235e+20 292.679 301.074 302.42 4994.35 6.24474 -5.19124 1.77235e+20 0 0 0 0 0 
223237 0 18.89 1.80386e+20 302.518 297.475 299.89 4998.68 6.1437 5.86188 1.80386e+20 0 0 0 0 0 
288773 0 18.97 1.8115e+20 298.113 304.442 296.237 5007.32 8.01889 3.8413 1.8115e+20 0 0 0 0 0 
100357 0 18.87 1.80195e+20 300.136 288.232 298.413 4998.53 6.86106 -3.64107 1.80195e+20 0 0 0 0 0 
165893 0 18.46 1.7628e+20 301.971 304.693 301.055 5006.3 7.81663 1.84917 1.7628e+20 0 0 0 0 0 
231429 0 19.07 1.82105e+20 300.59 302.631 301.517 5001.91 3.13895 2.23553 1.82105e+20 0 0 0 0 0 
296965 0 19.43 1.85543e+20 295.942 302.863 294.399 5004.76 3.98506 4.92786 1.85543e+20 0 0 0 0 0 
76805 0 19.27 1.84015e+20 300.21 299.755 297.637 5005.53 5.86978 4.27742 1.84015e+20 0 0 0 0 0 
142341 0 19.74 1.88503e+20 294.269 298.461 297.716 5011.16 -5.14663 -1.20579 1.88503e+20 0 0 0 0 0 
207877 0 19.25 1.83824e+20 293.6 295.927 301.941 5000.03 -0.54977 0.742215 1.83824e+20 0 0 0 0 0 
273413 0 18.98 1.81246e+20 296.472 295.539 294.495 4994.92 -0.198141 -2.32017 1.81246e+20 0 0 0 0 0 
84997 0 18.86 1.801e+20 302.627 304.636 301.823 5006.23 -0.253984 2.49579 1.801e+20 0 0 0 0 0 
150533 0 19.27 1.84015e+20 293.745 309.825 300.215 5004.56 4.27906 2.85614 1.84015e+20 0 0 0 0 0 
216069 0 18.73 1.78858e+20 291.749 293.99 295.445 5007.6 2.09979 0.775568 1.78858e+20 0 0 0 0 0 
281605 0 18.99 1.81341e+20 294.89 292.97 297.833 4993.92 0.510248 1.91119 1.81341e+20 0 0 0 0 0 
93189 0 18.83 1.79813e+20 297.6 301.94 297.733 4997.86 -7.26369 7.71894 1.79813e+20 0 0 0 0 0 
158725 0 18.57 1.7733e+20 300.988 300.942 292.732 4999.69 -9.74629 8.55125 1.7733e+20 0 0 0 0 0 
224261 0 19.18 1.83156e+20 304.108 305.876 299.376 5003.08 -0.444624 7.40809 1.83156e+20 0 0 0 0 0 
289797 0 18.81 1.79622e+20 298.943 303.888 296.263 5004.88 -0.803443 -3.51889 1.79622e+20 0 0 0 0 0 
101381 0 18.68 1.78381e+20 294.44 294.891 295.283 4996.02 -7.13608 6.9967 1.78381e+20 0 0 0 0 0 
166917 0 18.64 1.77999e+20 307.227 298.873 294.184 4998.18 -15.6168 9.44718 1.77999e+20 0 0 0 0 0 
232453 0 18.86 1.801e+20 298.414 318.85 297.957 4998.46 -2.99973 4.90729 1.801e+20 0 0 0 0 0 
297989 0 18.53 1.76948e+20 302.921 301.877 300.33 5005.78 2.08712 -0.750582 1.76948e+20 0 0 0 0 0 
77829 0 19.39 1.85161e+20 294.39 305.182 298.487 5005.66 0.807331 -5.02367 1.85161e+20 0 0 0 0 0 
143365 0 18.89 1.80386e+20 299.08 309.72 300.936 5012.44 3.51225 7.19716 1.80386e+20 0 0 0 0 0 
208901 0 18.88 1.80291e+20 297.17 295.979 294.33 5000.87 -5.89291 -1.74294 1.80291e+20 0 0 0 0 0 
274437 0 18.89 1.80386e+20 297.515 290.055 296.567 5004.85 6.62427 -2.05046 1.80386e+20 0 0 0 0 0 
86021 0 19.1 1.82392e+20 294.072 306.038 300.851 5005.28 7.09114 -0.637737 1.82392e+20 0 0 0 0 0 
151557 0 18.8 1.79527e+20 295.136 303.824 296.986 5008.69 1.48422 -1.1298 1.79527e+20 0 0 0 0 0 
217093 0 19.18 1.83156e+20 298.188 293.708 299.159 4994.13 -2.28332 -4.12394 1.83156e+20 0 0 0 0 0 
282629 0 19.12 1.82583e+20 296.99 301.985 295.597 5006.04 3.11537 0.385458 1.82583e+20 0 0 0 0 0 
94213 0 18.48 1.76471e+20 294.905 296.814 294.987 4995.24 -5.27765 0.197339 1.76471e+20 0 0 0 0 0 
159749 0 18.08 1.72651e+20 299.335 295.191 297.942 5002 -13.4177 12.1996 1.72651e+20 0 0 0 0 0 
225285 0 18 1.71887e+20 301.067 312.327 298.224 5003.71 -4.52873 -1.51222 1.71887e+20 0 0 0 0 0 
290821 0 18.26 1.7437e+20 300.212 307.031 300.441 4998.76 4.03495 1.61613 1.7437e+20 0 0 0 0 0 
102405 0 18.25 1.74275e+20 306.377 300.492 297.97 5000.6 -8.91048 -3.98007 1.74275e+20 0 0 0 0 0 
167941 0 17.95 1.7141e+20 296.293 292.783 295.268 4999.01 -0.0554286 4.56495 1.7141e+20 0 0 0 0 0 
233477 0 18.08 1.72651e+20 300.932 300.868 297.563 5001.17 -7.10594 6.05372 1.72651e+20 0 0 0 0 0 
299013 0 17.38 1.65967e+20 299.613 301.39 297.999 5005.66 -6.15712 -5.04411 1.65967e+20 0 0 0 0 0 
74761 0 15.8 1.50879e+20 302.04 295.404 298.05 5011.82 -0.537591 15.7698 1.50879e+20 0 0 0 0 0 
140297 0 15.17 1.44863e+20 304.029 290.498 302.139 5010.21 -9.43208 5.30189 1.44863e+20 0 0 0 0 0 
205833 0 17.65 1.68545e+20 295.426 303.684 308.197 5016.37 -0.518063 6.7752 1.68545e+20 0 0 0 0 0 
271369 0 16.98 1.62147e+20 299.652 290.131 307.372 4994.26 -7.52659 5.68462 1.62147e+20 0 0 0 0 0 
82953 0 15.01 1.43335e+20 303.619 289.38 303.613 5014.85 0.27729 7.34097 1.43335e+20 0 0 0 0 0 
148489 0 15.48 1.47823e+20 484.812 288.647 321.049 4993.98 -3.4308 1.17342 1.47823e+20 0 0 0 0 0 
214025 0 16.77 1.60142e+20 294.978 293.672 306.548 5004.94 5.93682 11.6286 1.60142e+20 0 0 0 0 0 
279561 0 17.53 1.67399e+20 399.082 296.785 303.462 5005.68 3.57959 7.19474 1.67399e+20 0 0 0 0 0 
91145 0 16.2 1.54699e+20 313.556 303.532 300.865 5000.05 8.20609 4.45978 1.54699e+20 0 0 0 0 0 
156681 0 16.56 1.58136e+20 309.842 286.594 305.022 5007.63 -3.06973 10.6223 1.58136e+20 0 0 0 0 0 
222217 0 17.67 1.68736e+20 297.43 303.46 292.598 5004.27 3.82834 -4.77437 1.68736e+20 0 0 0 0 0 
287753 0 17.21 1.64343e+20 294.496 300.609 294.845 5004.79 4.72724 -0.96106 1.64343e+20 0 0 0 0 0 
99337 0 16.07 1.53457e+20 302.792 299.008 303.69 5010.46 6.26948 5.36054 1.53457e+20 0 0 0 0 0 
164873 0 16.98 1.62147e+20 416.183 332.027 306.749 4998.04 -9.15522 6.0429 1.62147e+20 0 0 0 0 0 
230409 0 17.5 1.67113e+20 374.576 326.182 295.794 4998.28 2.90442 -12.5566 1.67113e+20 0 0 0 0 0 
295945 0 16.91 1.61479e+20 557.635 341.499 301.235 4983.76 -0.21465 5.74906 1.61479e+20 0 0 0 0 0 
75785 0 15.89 1.51738e+20 1748.57 556.362 335.403 4875.99 -14.9654 16.2838 1.51738e+20 0 0 0 0 0 
141321 0 19.6 1.87166e+20 9628.75 2811.56 899.083 3999.2 -38.5133 -15.3203 1.87166e+20 0 0 0 0 0 
206857 0 17.02 1.62529e+20 1879.86 748.444 385.82 4853.35 -9.32582 5.71941 1.62529e+20 0 0 0 0 0 
272393 0 21.11 2.01586e+20 9753.44 2741.47 826.784 4033.06 -5.35424 21.3822 2.01586e+20 0 0 0 0 0 
83977 0 40.08 3.82736e+20 15210.8 8059.78 3420.26 2093.76 -34.4423 -8.4593 3.82736e+20 0 0 0 0 0 
149513 0 77.86 7.43508e+20 13152 10101.5 6381.25 1161.02 -10.6574 15.1858 7.43508e+20 0 0 0 0 0 
215049 0 40.68 3.88465e+20 15600.1 8146.72 3221.45 2177.13 -89.5093 6.91802 3.88465e+20 0 0 0 0 0 
280585 0 78.66 7.51148e+20 13184.5 9654.51 6302.54 1174.7 -14.2806 -24.8787 7.51148e+20 0 0 0 0 0 
92169 0 17.06 1.62911e+20 2189.15 790.56 330.132 4838.71 -0.267471 21.3886 1.62911e+20 0 0 0 0 0 
157705 0 21.21 2.02541e+20 10034 3184.7 852.028 3908.86 -86.6196 -30.5027 2.02541e+20 0 0 0 0 0 
223241 0 17.9 1.70932e+20 1997.24 785.629 354.566 4842.68 -11.02 9.23079 1.70932e+20 0 0 0 0 0 
288777 0 22.39 2.13809e+20 10000.1 2921.51 980.738 3896.36 -66.8922 -6.03543 2.13809e+20 0 0 0 0 0 
100361 0 41.66 3.97824e+20 15939.5 8319.67 3456.58 2040.92 -113.85 -9.25289 3.97824e+20 0 0 0 0 0 
165897 0 73.55 7.02351e+20 13527.9 10008.7 6356.71 1217.97 -37.6412 41.7107 7.02351e+20 0 0 0 0 0 
231433 0 43.97 4.19883e+20 15537.5 8734.12 3761.02 1922.14 -88.5868 27.3889 4.19883e+20 0 0 0 0 0 
296969 0 75.91 7.24887e+20 13772.8 9648.58 6538.98 1193.87 -34.7783 23.1312 7.24887e+20 0 0 0 0 0 
76809 0 17.27 1.64916e+20 303.289 301.982 302.013 5007.06 3.43161 -1.85756 1.64916e+20 0 0 0 0 0 
142345 0 18.03 1.72174e+20 327.813 305.043 300.268 4999.71 -3.34653 1.90754 1.72174e+20 0 0 0 0 0 
207881 0 17.52 1.67304e+20 303.842 299.352 299.512 4998.61 1.55158 1.98475 1.67304e+20 0 0 0 0 0 
273417 0 17.38 1.65967e+20 499.498 385.673 291.807 4980.23 -5.60622 0.113844 1.65967e+20 0 0 0 0 0 
85001 0 17.52 1.67304e+20 352.651 309.976 301.311 4999.4 -3.08969 -7.05528 1.67304e+20 0 0 0 0 0 
150537 0 17.3 1.65203e+20 657.409 417.911 329.065 4978.46 -6.25273 -2.06885 1.65203e+20 0 0 0 0 0 
216073 0 17.39 1.66062e+20 364.121 332.768 295.295 5003.02 5.52132 7.92352 1.66062e+20 0 0 0 0 0 
281609 0 17.02 1.62529e+20 511.671 400.926 317.531 4984.23 -1.39615 11.1111 1.62529e+20 0 0 0 0 0 
93193 0 16.63 1.58805e+20 300.88 299.92 299.515 5009.63 3.5709 -5.3982 1.58805e+20 0 0 0 0 0 
158729 0 16.44 1.5699e+20 405.142 316.427 292.352 4989.28 2.20918 1.54884 1.5699e+20 0 0 0 0 0 
224265 0 16.13 1.5403e+20 295.875 305.379 293.329 5000.93 6.42531 7.84571 1.5403e+20 0 0 0 0 0 
289801 0 16.55 1.58041e+20 357.178 309.913 292.918 4996.15 0.0623675 3.97342 1.58041e+20 0 0 0 0 0 
101385 0 16.3 1.55654e+20 384.489 313.454 296.069 5001.28 5.22708 5.24445 1.55654e+20 0 0 0 0 0 
166921 0 16.23 1.54985e+20 397.052 313.072 305.222 4995.55 3.94853 -2.49685 1.54985e+20 0 0 0 0 0 
232457 0 16.56 1.58136e+20 422.307 359.252 299.401 4983.9 1.5632 11.2282 1.58136e+20 0 0 0 0 0 
297993 0 16.35 1.56131e+20 509.049 468.592 303.499 4974.02 1.51112 -1.05994 1.56131e+20 0 0 0 0 0 
77833 0 18.46 1.7628e+20 2376.7 700.63 381.896 4817.84 -7.9199 -1.81273 1.7628e+20 0 0 0 0 0 
143369 0 22.87 2.18392e+20 10739.8 2897.46 1029.77 3801.21 -66.8194 19.0858 2.18392e+20 0 0 0 0 0 
208905 0 17.75 1.695e+20 2643.1 767.815 428.586 4789.75 3.82652 8.68091 1.695e+20 0 0 0 0 0 
274441 0 22.82 2.17915e+20 12052.2 3812.34 1101.54 3665.3 -83.2916 25.8086 2.17915e+20 0 0 0 0 0 
86025 0 47.15 4.50249e+20 15194.8 8418.2 3849.77 1894.78 -93.7186 7.32251 4.50249e+20 0 0 0 0 0 
151561 0 77.84 7.43317e+20 13126.1 9780.52 6607.55 1158.87 -27.7964 13.8226 7.43317e+20 0 0 0 0 0 
217097 0 47.99 4.58271e+20 15107.9 8573.14 4226.52 1776.74 -113.678 16.3265 4.58271e+20 0 0 0 0 0 
282633 0 77.69 7.41885e+20 13062.4 9575.88 7028.21 1141.36 -10.6911 -9.50916 7.41885e+20 0 0 0 0 0 
94217 0 16.99 1.62243e+20 3096.55 839.601 392.765 4754.83 6.08155 16.3961 1.62243e+20 0 0 0 0 0 
159753 0 23.35 2.22976e+20 13355.9 4377.86 1314.7 3378.63 -61.3489 -18.3496 2.22976e+20 0 0 0 0 0 
225289 0 17.31 1.65298e+20 3330.52 963.298 355.193 4710.06 10.3459 -25.6115 1.65298e+20 0 0 0 0 0 
290825 0 25.62 2.44653e+20 13728.9 4579.1 1478.71 3267.27 18.4546 -45.6694 2.44653e+20 0 0 0 0 0 
102409 0 49.47 4.72404e+20 15221.4 8685.96 4550.3 1637.99 -89.4659 42.4872 4.72404e+20 0 0 0 0 0 
167945 0 75.35 7.19539e+20 13229.4 10035.2 7261.92 1031.76 -10.7743 21.8416 7.19539e+20 0 0 0 0 0 
233481 0 50.86 4.85677e+20 15116.7 9313.91 4829.6 1525.52 -45.8709 108.137 4.85677e+20 0 0 0 0 0 
299017 0 78.31 7.47805e+20 13281.6 9560.31 7471.34 1010.06 6.63054 -9.96403 7.47805e+20 0 0 0 0 0 
74785 0 19.83 1.89363e+20 291.457 296.496 300.196 5008.43 7.06618 5.52402 1.89363e+20 0 0 0 0 0 
140321 0 19.19 1.83251e+20 299.401 299.57 300.422 5000.46 -5.65404 -1.14367 1.83251e+20 0 0 0 0 0 
205857 0 20.02 1.91177e+20 301.318 304.106 296.585 4995.7 0.751322 7.64528 1.91177e+20 0 0 0 0 0 
271393 0 20.04 1.91368e+20 301.151 295.625 295.674 4995.97 1.77532 3.8078 1.91368e+20 0 0 0 0 0 
82977 0 19.57 1.8688e+20 297.429 305.045 300.867 4994.87 -4.43955 3.84949 1.8688e+20 0 0 0 0 0 
148513 0 18.96 1.81055e+20 298.266 301.119 303.308 4996.97 -2.04093 -2.28023 1.81055e+20 0 0 0 0 0 
214049 0 20.13 1.92227e+20 301.284 302.001 290.986 4997 3.11366 4.3987 1.92227e+20 0 0 0 0 0 
279585 0 19.82 1.89267e+20 299.995 300.193 294.416 4999.61 6.58521 6.6259 1.89267e+20 0 0 0 0 0 
91169 0 19.78 1.88885e+20 300.231 288.403 295.632 4993.53 -2.29939 -1.23982 1.88885e+20 0 0 0 0 0 
156705 0 19.04 1.81819e+20 305.073 295.628 297.474 4993.12 1.08534 -0.561357 1.81819e+20 0 0 0 0 0 
222241 0 20.56 1.96334e+20 312.045 305.54 295.906 5003.5 0.187706 -6.30187 1.96334e+20 0 0 0 0 0 
287777 0 19.74 1.88503e+20 310.216 298.123 298.792 5006.95 -6.00919 -2.5942 1.88503e+20 0 0 0 0 0 
99361 0 20.2 1.92896e+20 297.847 299.797 297.471 4992.45 -9.6942 -7.24282 1.92896e+20 0 0 0 0 0 
164897 0 19.48 1.8602e+20 306.069 287.336 294.14 4989.76 -2.03399 3.54311 1.8602e+20 0 0 0 0 0 
230433 0 20.11 1.92036e+20 307.69 290.236 295.471 5003.84 -3.03702 -6.75536 1.92036e+20 0 0 0 0 0 
295969 0 19.81 1.89172e+20 306.074 302.042 295.494 5000.5 3.2942 -4.37432 1.89172e+20 0 0 0 0 0 
75809 0 19.09 1.82296e+20 296.361 303.227 300.885 5001.39 -9.11609 0.443443 1.82296e+20 0 0 0 0 0 
141345 0 19.42 1.85447e+20 291.268 314.444 301.584 4993.69 -0.187687 7.72505 1.85447e+20 0 0 0 0 0 
206881 0 19.76 1.88694e+20 301.081 291.946 298.372 5001.53 -1.99631 3.9737 1.88694e+20 0 0 0 0 0 
272417 0 20 1.90986e+20 302.16 296.705 295.924 4998.79 6.67905 9.8997 1.90986e+20 0 0 0 0 0 
84001 0 19.06 1.8201e+20 291.824 300.084 302.751 5000.06 -5.21578 -2.05856 1.8201e+20 0 0 0 0 0 
149537 0 19.04 1.81819e+20 292.442 295.705 302.896 5000.07 -13.0495 7.05786 1.81819e+20 0 0 0 0 0 
215073 0 19.04 1.81819e+20 299.453 296.85 295.228 4998.18 -0.548092 8.63074 1.81819e+20 0 0 0 0 0 
280609 0 19.18 1.83156e+20 295.499 294.88 301.945 5001.45 1.34003 3.96462 1.83156e+20 0 0 0 0 0 
92193 0 19.41 1.85352e+20 308.075 300.93 299.228 4993.82 1.28032 0.122475 1.85352e+20 0 0 0 0 0 
157729 0 20.08 1.9175e+20 301.653 290.413 293.381 4994.27 -1.61565 -6.93775 1.9175e+20 0 0 0 0 0 
223265 0 19.36 1.84874e+20 314.233 292.714 296.194 5004.41 -8.17041 -2.72519 1.84874e+20 0 0 0 0 0 
288801 0 19.54 1.86593e+20 299.926 297.334 291.7 5003.46 -8.32814 -4.78784 1.86593e+20 0 0 0 0 0 
100385 0 19.08 1.82201e+20 308.418 302.387 297.382 4990.28 -2.22975 0.778792 1.82201e+20 0 0 0 0 0 
165921 0 20.15 1.92418e+20 303.054 298.517 294.002 4996.86 0.210912 6.82622 1.92418e+20 0 0 0 0 0 
231457 0 19.04 1.81819e+20 302.709 306.842 295.076 5003.49 0.175437 -8.65331 1.81819e+20 0 0 0 0 0 
296993 0 18.93 1.80768e+20 304.856 292.058 296.937 5008.18 -5.64672 -8.50492 1.80768e+20 0 0 0 0 0 
76833 0 19.74 1.88503e+20 306.253 306.695 301.098 4997.85 -0.451792 -4.92728 1.88503e+20 0 0 0 0 0 
142369 0 19.1 1.82392e+20 296.426 314.433 299.922 4994.87 8.63821 -6.85404 1.82392e+20 0 0 0 0 0 
207905 0 20.46 1.95379e+20 300.304 311.843 294.89 4993.88 -2.97871 2.74237 1.95379e+20 0 0 0 0 0 
273441 0 19.88 1.8984e+20 300.807 306.612 296.421 5007.11 0.150181 -2.45988 1.8984e+20 0 0 0 0 0 
85025 0 19.6 1.87166e+20 302.908 302.805 302.161 4993.18 3.52257 -10.8739 1.87166e+20 0 0 0 0 0 
150561 0 19.53 1.86498e+20 305.408 315.759 299.283 4995.28 8.17163 -7.30447 1.86498e+20 0 0 0 0 0 
216097 0 19.92 1.90222e+20 297.253 308.659 298.19 5002.66 -5.77477 2.07925 1.90222e+20 0 0 0 0 0 
281633 0 20.15 1.92418e+20 303.161 309.184 290.178 4996.08 -0.627641 5.28222 1.92418e+20 0 0 0 0 0 
93217 0 20.07 1.91654e+20 313.391 300.48 294.875 5004.97 8.07966 3.29781 1.91654e+20 0 0 0 0 0 
158753 0 19.72 1.88312e+20 308.795 293.429 294.708 5000.18 -3.8917 5.29415 1.88312e+20 0 0 0 0 0 
224289 0 19.82 1.89267e+20 303.303 294.039 293.162 4996.3 -0.857783 -1.80849 1.89267e+20 0 0 0 0 0 
289825 0 19.77 1.8879e+20 297.291 300.387 296.921 4999.87 2.2182 -4.36792 1.8879e+20 0 0 0 0 0 
101409 0 20.16 1.92514e+20 300.105 290.816 300.294 5011.17 2.79883 7.70599 1.92514e+20 0 0 0 0 0 
166945 0 19.37 1.8497e+20 304.263 298.504 299.955 5002.47 -7.08346 2.17737 1.8497e+20 0 0 0 0 0 
232481 0 19.73 1.88408e+20 302.228 295.746 295.472 4996.64 -4.68067 -2.55015 1.88408e+20 0 0 0 0 0 
298017 0 19.28 1.8411e+20 307.957 298.955 293.239 4996.09 -2.0619 3.37806 1.8411e+20 0 0 0 0 0 
77857 0 19.37 1.8497e+20 300.239 312.491 304.499 4994.43 8.13885 -4.09772 1.8497e+20 0 0 0 0 0 
143393 0 20.15 1.92418e+20 299.052 309.81 296.703 4995.43 6.70162 -5.89134 1.92418e+20 0 0 0 0 0 
208929 0 19.67 1.87835e+20 301.79 305.035 297.678 4999.31 -8.21655 -3.55184 1.87835e+20 0 0 0 0 0 
274465 0 19.81 1.89172e+20 301.647 307.878 296.872 4994.39 -8.86956 -5.81503 1.89172e+20 0 0 0 0 0 
86049 0 19.16 1.82965e+20 303.108 318.249 301.156 4990.71 4.62601 -8.73587 1.82965e+20 0 0 0 0 0 
151585 0 19.48 1.8602e+20 292.956 314.625 301.975 4994.69 5.99039 -2.48375 1.8602e+20 0 0 0 0 0 
217121 0 20.07 1.91654e+20 308.273 295.087 287.475 4995.66 -2.26081 -6.28378 1.91654e+20 0 0 0 0 0 
282657 0 19.29 1.84206e+20 299.989 308.995 297.755 4997.75 -3.84935 -4.89481 1.84206e+20 0 0 0 0 0 
94241 0 19.93 1.90317e+20 301.143 286.176 295.372 5015.57 3.06543 11.3672 1.90317e+20 0 0 0 0 0 
159777 0 19.24 1.83728e+20 307.847 295.527 303.395 5008.84 2.04127 2.86889 1.83728e+20 0 0 0 0 0 
225313 0 19.65 1.87644e+20 302.636 299.092 296.985 4992.98 0.323606 -4.26924 1.87644e+20 0 0 0 0 0 
290849 0 19.81 1.89172e+20 311.405 292.107 293.291 4996.72 3.87885 -5.89003 1.89172e+20 0 0 0 0 0 
102433 0 19.62 1.87357e+20 300.091 300.513 302.929 5004.73 3.20176 4.76271 1.87357e+20 0 0 0 0 0 
167969 0 19.74 1.88503e+20 302.563 291.976 301.343 5011.44 -9.3912 5.04183 1.88503e+20 0 0 0 0 0 
233505 0 19.14 1.82774e+20 297.248 302.76 293.266 5001.26 -1.37909 6.02898 1.82774e+20 0 0 0 0 0 
299041 0 19.67 1.87835e+20 308.801 296.769 295.663 4995.22 -3.17231 -0.339666 1.87835e+20 0 0 0 0 0 
74789 0 17.48 1.66922e+20 289.571 314.78 291.585 4997.71 -6.94067 -3.50546 1.66922e+20 0 0 0 0 0 
140325 0 17.45 1.66635e+20 285.779 304.021 296.856 5008.65 -6.4819 2.18985 1.66635e+20 0 0 0 0 0 
205861 0 18.12 1.73033e+20 300.819 297.593 294.352 5004.65 0.296348 5.18784 1.73033e+20 0 0 0 0 0 
271397 0 18.04 1.72269e+20 310.357 303.287 295.443 5003.42 4.6857 2.8998 1.72269e+20 0 0 0 0 0 
82981 0 17.37 1.65871e+20 296.516 315.692 297.732 5000.23 -10.6419 -7.09536 1.65871e+20 0 0 0 0 0 
148517 0 17.37 1.65871e+20 289.21 317.785 297.164 5003.03 -5.46122 -0.192896 1.65871e+20 0 0 0 0 0 
214053 0 17.35 1.6568e+20 292.199 292.522 298.496 5005.19 -0.81025 4.7675 1.6568e+20 0 0 0 0 0 
279589 0 18.16 1.73415e+20 301.6 303.785 295.14 5006.27 6.34764 5.24289 1.73415e+20 0 0 0 0 0 
91173 0 17.55 1.6759e+20 304.819 297.83 302.434 4994.37 3.61909 9.3314 1.6759e+20 0 0 0 0 0 
156709 0 17.53 1.67399e+20 307.914 292.007 301.67 5000.68 0.711722 4.50282 1.67399e+20 0 0 0 0 0 
222245 0 17.66 1.68641e+20 287.026 304.788 297.165 5003.49 -3.73567 -6.07073 1.68641e+20 0 0 0 0 0 
287781 0 17.57 1.67781e+20 299.225 297.658 298.071 4995.92 -5.10897 -9.0337 1.67781e+20 0 0 0 0 0 
99365 0 17.46 1.66731e+20 301.521 309.738 294.494 5000.53 6.15369 12.8745 1.66731e+20 0 0 0 0 0 
164901 0 17.12 1.63484e+20 309.783 292.339 302.154 4995.08 2.75457 3.02618 1.63484e+20 0 0 0 0 0 
230437 0 17.71 1.69118e+20 289.202 298.217 292.636 5006.97 -9.7384 -13.6964 1.69118e+20 0 0 0 0 0 
295973 0 17.05 1.62816e+20 292.242 306.118 297.701 4996.8 -0.843218 3.90802 1.62816e+20 0 0 0 0 0 
75813 0 17.09 1.63197e+20 295.113 299.716 292.331 5002.15 -4.88898 -7.86252 1.63197e+20 0 0 0 0 0 
141349 0 17.21 1.64343e+20 295.972 311.182 292.312 5002.42 -6.94165 -1.26585 1.64343e+20 0 0 0 0 0 
206885 0 17.71 1.69118e+20 303.27 299.767 297.648 5001.5 -2.92021 4.70146 1.69118e+20 0 0 0 0 0 
272421 0 17.66 1.68641e+20 302.222 293.418 298.693 5006.9 4.60407 7.9911 1.68641e+20 0 0 0 0 0 
84005 0 17.21 1.64343e+20 290.845 305.118 300.717 5002.31 -1.40311 3.20498 1.64343e+20 0 0 0 0 0 
149541 0 17.15 1.6377e+20 299.971 309.036 291.246 4996.49 -13.2276 -11.9329 1.6377e+20 0 0 0 0 0 
215077 0 17.01 1.62434e+20 299.428 315.417 291.67 5001.33 -8.30271 -3.84364 1.62434e+20 0 0 0 0 0 
280613 0 17.03 1.62625e+20 306.175 300.561 296.26 5002.98 0.11283 4.67101 1.62625e+20 0 0 0 0 0 
92197 0 17.39 1.66062e+20 301.304 301.956 294.7 5000.5 6.2363 1.9757 1.66062e+20 0 0 0 0 0 
157733 0 17.69 1.68927e+20 314.146 303.83 295.364 4999.09 -1.6181 4.00426 1.68927e+20 0 0 0 0 0 
223269 0 17.77 1.69691e+20 302.845 296.441 293.941 5009.7 -6.62976 -1.42887 1.69691e+20 0 0 0 0 0 
288805 0 17.28 1.65012e+20 296.082 298.411 293.509 5004.25 -1.62995 -4.59444 1.65012e+20 0 0 0 0 0 
100389 0 17.46 1.66731e+20 308.188 296.352 300.854 4996.44 5.88565 4.53441 1.66731e+20 0 0 0 0 0 
165925 0 17.62 1.68259e+20 314.816 306.573 293.158 4999.29 2.22171 2.99108 1.68259e+20 0 0 0 0 0 
231461 0 17.26 1.64821e+20 298.155 301.042 298.056 5006.13 1.63592 -4.86481 1.64821e+20 0 0 0 0 0 
296997 0 16.93 1.6167e+20 295.861 308.563 292.166 5004.06 -3.98999 -4.23876 1.6167e+20 0 0 0 0 0 
76837 0 17.67 1.68736e+20 292.785 296.894 301.444 5005.52 6.61105 -0.277398 1.68736e+20 0 0 0 0 0 
142373 0 17.75 1.695e+20 300.18 310.518 301.345 5005.94 1.05832 2.17687 1.695e+20 0 0 0 0 0 
207909 0 18.1 1.72842e+20 305.448 309.36 293.757 4989.76 1.90009 1.75583 1.72842e+20 0 0 0 0 0 
273445 0 17.78 1.69786e+20 299.935 299.849 292.131 5000.17 -9.35886 -3.74113 1.69786e+20 0 0 0 0 0 
85029 0 17.75 1.695e+20 287.686 296.335 300.722 4997.34 2.20547 -1.777 1.695e+20 0 0 0 0 0 
150565 0 17.66 1.68641e+20 303.575 306.925 300.032 5001.09 -7.01378 -0.0531868 1.68641e+20 0 0 0 0 0 
216101 0 17.75 1.695e+20 301.041 298.839 294.321 5001.81 7.90671 -3.85471 1.695e+20 0 0 0 0 0 
281637 0 17.79 1.69882e+20 304.844 304.191 295.482 4986.86 -4.11058 -5.9488 1.69882e+20 0 0 0 0 0 
93221 0 17.7 1.69023e+20 296.649 285.764 301.507 5006.08 7.69915 5.47111 1.69023e+20 0 0 0 0 0 
158757 0 17.9 1.70932e+20 295.139 310.707 299.184 4996.34 -6.56577 -2.22046 1.70932e+20 0 0 0 0 0 
224293 0 17.29 1.65107e+20 299.578 290.64 293.528 5008.25 -11.1632 -6.28165 1.65107e+20 0 0 0 0 0 
289829 0 17.99 1.71792e+20 313.589 299.244 299.042 4992.63 6.81562 -6.43925 1.71792e+20 0 0 0 0 0 
101413 0 18.55 1.77139e+20 298.8 291.36 295.686 5002.78 -4.41221 9.25419 1.77139e+20 0 0 0 0 0 
166949 0 17.27 1.64916e+20 306.636 294.409 303.54 5008.01 -6.60881 3.26632 1.64916e+20 0 0 0 0 0 
232485 0 17.38 1.65967e+20 300.365 297.577 298.323 5005.9 -7.36324 -1.60222 1.65967e+20 0 0 0 0 0 