ITEM: TIMESTEP
13000
ITEM: NUMBER OF CELLS
26430
ITEM: BOX BOUNDS oo ao pp
-2.5 5
0 5
-0.0005 0.0005
ITEM: CELLS id proc f_avg_n f_avg_nrho f_avg_temp_tra f_avg_temp_rot f_avg_temp_vib f_avg_vel[1] f_avg_vel[2] f_avg_vel[3] f_avg_nrho_CO2 f_avg_nrho_O2 f_avg_nrho_C2 f_avg_nrho_CO f_avg_nrho_O f_avg_nrho_C 
74753 0 0 0 0 0 0 0 0 0 0 0 0 0 0 0 
140289 0 0 0 0 0 0 0 0 0 0 0 0 0 0 0 
205825 0 0 0 0 0 0 0 0 0 0 0 0 0 0 0 
271361 0 0 0 0 0 0 0 0 0 0 0 0 0 0 0 
82945 0 0 0 0 0 0 0 0 0 0 0 0 0 0 0 
148481 0 0 0 0 0 0 0 0 0 0 0 0 0 0 0 
214017 0 0 0 0 0 0 0 0 0 0 0 0 0 0 0 
279553 0 0 0 0 0 0 0 0 0 0 0 0 0 0 0 
91137 0 0 0 0 0 0 0 0 0 0 0 0 0 0 0 
156673 0 0 0 0 0 0 0 0 0 0 0 0 0 0 0 
222209 0 0 0 0 0 0 0 0 0 0 0 0 0 0 0 
287745 0 0 0 0 0 0 0 0 0 0 0 0 0 0 0 
99329 0 0 0 0 0 0 0 0 0 0 0 0 0 0 0 
164865 0 0 0 0 0 0 0 0 0 0 0 0 0 0 0 
230401 0 0 0 0 0 0 0 0 0 0 0 0 0 0 0 
295937 0 0 0 0 0 0 0 0 0 0 0 0 0 0 0 
75777 0 0 0 0 0 0 0 0 0 0 0 0 0 0 0 
141313 0 0 0 0 0 0 0 0 0 0 0 0 0 0 0 
206849 0 0 0 0 0 0 0 0 0 0 0 0 0 0 0 
272385 0 0 0 0 0 0 0 0 0 0 0 0 0 0 0 
83969 0 0 0 0 0 0 0 0 0 0 0 0 0 0 0 
149505 0 0 0 0 0 0 0 0 0 0 0 0 0 0 0 
215041 0 0 0 0 0 0 0 0 0 0 0 0 0 0 0 
280577 0 0 0 0 0 0 0 0 0 0 0 0 0 0 0 
92161 0 0 0 0 0 0 0 0 0 0 0 0 0 0 0 
157697 0 0 0 0 0 0 0 0 0 0 0 0 0 0 0 
223233 0 0 0 0 0 0 0 0 0 0 0 0 0 0 0 
288769 0 0 0 0 0 0 0 0 0 0 0 0 0 0 0 
100353 0 0 0 0 0 0 0 0 0 0 0 0 0 0 0 
165889 0 0 0 0 0 0 0 0 0 0 0 0 0 0 0 
231425 0 0 0 0 0 0 0 0 0 0 0 0 0 0 0 
296961 0 0 0 0 0 0 0 0 0 0 0 0 0 0 0 
76801 0 0 0 0 0 0 0 0 0 0 0 0 0 0 0 
142337 0 0 0 0 0 0 0 0 0 0 0 0 0 0 0 
207873 0 0 0 0 0 0 0 0 0 0 0 0 0 0 0 
273409 0 0 0 0 0 0 0 0 0 0 0 0 0 0 0 
84993 0 0 0 0 0 0 0 0 0 0 0 0 0 0 0 
150529 0 0 0 0 0 0 0 0 0 0 0 0 0 0 0 
216065 0 0 0 0 0 0 0 0 0 0 0 0 0 0 0 
281601 0 0 0 0 0 0 0 0 0 0 0 0 0 0 0 
93185 0 0 0 0 0 0 0 0 0 0 0 0 0 0 0 
158721 0 0 0 0 0 0 0 0 0 0 0 0 0 0 0 
224257 0 0 0 0 0 0 0 0 0 0 0 0 0 0 0 
289793 0 0 0 0 0 0 0 0 0 0 0 0 0 0 0 
101377 0 0 0 0 0 0 0 0 0 0 0 0 0 0 0 
166913 0 0 0 0 0 0 0 0 0 0 0 0 0 0 0 
232449 0 0 0 0 0 0 0 0 0 0 0 0 0 0 0 
297985 0 0 0 0 0 0 0 0 0 0 0 0 0 0 0 
77825 0 0 0 0 0 0 0 0 0 0 0 0 0 0 0 
143361 0 0 0 0 0 0 0 0 0 0 0 0 0 0 0 
208897 0 0 0 0 0 0 0 0 0 0 0 0 0 0 0 
274433 0 0 0 0 0 0 0 0 0 0 0 0 0 0 0 
86017 0 0 0 0 0 0 0 0 0 0 0 0 0 0 0 
151553 0 0 0 0 0 0 0 0 0 0 0 0 0 0 0 
217089 0 0 0 0 0 0 0 0 0 0 0 0 0 0 0 
282625 0 0 0 0 0 0 0 0 0 0 0 0 0 0 0 
94209 0 0 0 0 0 0 0 0 0 0 0 0 0 0 0 
159745 0 0 0 0 0 0 0 0 0 0 0 0 0 0 0 
225281 0 0 0 0 0 0 0 0 0 0 0 0 0 0 0 
290817 0 0 0 0 0 0 0 0 0 0 0 0 0 0 0 
102401 0 0 0 0 0 0 0 0 0 0 0 0 0 0 0 
167937 0 0 0 0 0 0 0 0 0 0 0 0 0 0 0 
233473 0 0 0 0 0 0 0 0 0 0 0 0 0 0 0 
299009 0 0 0 0 0 0 0 0 0 0 0 0 0 0 0 
74757 0 0 0 0 0 0 0 0 0 0 0 0 0 0 0 
140293 0 0 0 0 0 0 0 0 0 0 0 0 0 0 0 
205829 0 0 0 0 0 0 0 0 0 0 0 0 0 0 0 
271365 0 0 0 0 0 0 0 0 0 0 0 0 0 0 0 
82949 0 0 0 0 0 0 0 0 0 0 0 0 0 0 0 
148485 0 0 0 0 0 0 0 0 0 0 0 0 0 0 0 
214021 0 0 0 0 0 0 0 0 0 0 0 0 0 0 0 
279557 0 0 0 0 0 0 0 0 0 0 0 0 0 0 0 
91141 0 0 0 0 0 0 0 0 0 0 0 0 0 0 0 
156677 0 0 0 0 0 0 0 0 0 0 0 0 0 0 0 
222213 0 0 0 0 0 0 0 0 0 0 0 0 0 0 0 
287749 0 0 0 0 0 0 0 0 0 0 0 0 0 0 0 
99333 0 0 0 0 0 0 0 0 0 0 0 0 0 0 0 
164869 0 0 0 0 0 0 0 0 0 0 0 0 0 0 0 
230405 0 0 0 0 0 0 0 0 0 0 0 0 0 0 0 
295941 0 0 0 0 0 0 0 0 0 0 0 0 0 0 0 
75781 0 0 0 0 0 0 0 0 0 0 0 0 0 0 0 
141317 0 0 0 0 0 0 0 0 0 0 0 0 0 0 0 
206853 0 0 0 0 0 0 0 0 0 0 0 0 0 0 0 
272389 0 0 0 0 0 0 0 0 0 0 0 0 0 0 0 
83973 0 0 0 0 0 0 0 0 0 0 0 0 0 0 0 
149509 0 0 0 0 0 0 0 0 0 0 0 0 0 0 0 
215045 0 0 0 0 0 0 0 0 0 0 0 0 0 0 0 
280581 0 0 0 0 0 0 0 0 0 0 0 0 0 0 0 
92165 0 0 0 0 0 0 0 0 0 0 0 0 0 0 0 
157701 0 0 0 0 0 0 0 0 0 0 0 0 0 0 0 
223237 0 0 0 0 0 0 0 0 0 0 0 0 0 0 0 
288773 0 0 0 0 0 0 0 0 0 0 0 0 0 0 0 
100357 0 0 0 0 0 0 0 0 0 0 0 0 0 0 0 
165893 0 0 0 0 0 0 0 0 0 0 0 0 0 0 0 
231429 0 0 0 0 0 0 0 0 0 0 0 0 0 0 0 
296965 0 0 0 0 0 0 0 0 0 0 0 0 0 0 0 
76805 0 0 0 0 0 0 0 0 0 0 0 0 0 0 0 
142341 0 0 0 0 0 0 0 0 0 0 0 0 0 0 0 
207877 0 0 0 0 0 0 0 0 0 0 0 0 0 0 0 
273413 0 0 0 0 0 0 0 0 0 0 0 0 0 0 0 
84997 0 0 0 0 0 0 0 0 0 0 0 0 0 0 0 
150533 0 0 0 0 0 0 0 0 0 0 0 0 0 0 0 
216069 0 0 0 0 0 0 0 0 0 0 0 0 0 0 0 
281605 0 0 0 0 0 0 0 0 0 0 0 0 0 0 0 
93189 0 0 0 0 0 0 0 0 0 0 0 0 0 0 0 
158725 0 0 0 0 0 0 0 0 0 0 0 0 0 0 0 
224261 0 0 0 0 0 0 0 0 0 0 0 0 0 0 0 
289797 0 0 0 0 0 0 0 0 0 0 0 0 0 0 0 
101381 0 0 0 0 0 0 0 0 0 0 0 0 0 0 0 
166917 0 0 0 0 0 0 0 0 0 0 0 0 0 0 0 
232453 0 0 0 0 0 0 0 0 0 0 0 0 0 0 0 
297989 0 0 0 0 0 0 0 0 0 0 0 0 0 0 0 
77829 0 0 0 0 0 0 0 0 0 0 0 0 0 0 0 
143365 0 0 0 0 0 0 0 0 0 0 0 0 0 0 0 
208901 0 0 0 0 0 0 0 0 0 0 0 0 0 0 0 
274437 0 0 0 0 0 0 0 0 0 0 0 0 0 0 0 
86021 0 0 0 0 0 0 0 0 0 0 0 0 0 0 0 
151557 0 0 0 0 0 0 0 0 0 0 0 0 0 0 0 
217093 0 0 0 0 0 0 0 0 0 0 0 0 0 0 0 
282629 0 0 0 0 0 0 0 0 0 0 0 0 0 0 0 
94213 0 0 0 0 0 0 0 0 0 0 0 0 0 0 0 
159749 0 0 0 0 0 0 0 0 0 0 0 0 0 0 0 
225285 0 0 0 0 0 0 0 0 0 0 0 0 0 0 0 
290821 0 0 0 0 0 0 0 0 0 0 0 0 0 0 0 
102405 0 0 0 0 0 0 0 0 0 0 0 0 0 0 0 
167941 0 0 0 0 0 0 0 0 0 0 0 0 0 0 0 
233477 0 0 0 0 0 0 0 0 0 0 0 0 0 0 0 
299013 0 0 0 0 0 0 0 0 0 0 0 0 0 0 0 
74761 0 0 0 0 0 0 0 0 0 0 0 0 0 0 0 
140297 0 0 0 0 0 0 0 0 0 0 0 0 0 0 0 
205833 0 0 0 0 0 0 0 0 0 0 0 0 0 0 0 
271369 0 0 0 0 0 0 0 0 0 0 0 0 0 0 0 
82953 0 0 0 0 0 0 0 0 0 0 0 0 0 0 0 
148489 0 0 0 0 0 0 0 0 0 0 0 0 0 0 0 
214025 0 0 0 0 0 0 0 0 0 0 0 0 0 0 0 
279561 0 0 0 0 0 0 0 0 0 0 0 0 0 0 0 
91145 0 0 0 0 0 0 0 0 0 0 0 0 0 0 0 
156681 0 0 0 0 0 0 0 0 0 0 0 0 0 0 0 
222217 0 0 0 0 0 0 0 0 0 0 0 0 0 0 0 
287753 0 0 0 0 0 0 0 0 0 0 0 0 0 0 0 
99337 0 0 0 0 0 0 0 0 0 0 0 0 0 0 0 
164873 0 0 0 0 0 0 0 0 0 0 0 0 0 0 0 
230409 0 0 0 0 0 0 0 0 0 0 0 0 0 0 0 
295945 0 0 0 0 0 0 0 0 0 0 0 0 0 0 0 
75785 0 0 0 0 0 0 0 0 0 0 0 0 0 0 0 
141321 0 0 0 0 0 0 0 0 0 0 0 0 0 0 0 
206857 0 0 0 0 0 0 0 0 0 0 0 0 0 0 0 
272393 0 0 0 0 0 0 0 0 0 0 0 0 0 0 0 
83977 0 0 0 0 0 0 0 0 0 0 0 0 0 0 0 
149513 0 0 0 0 0 0 0 0 0 0 0 0 0 0 0 
215049 0 0 0 0 0 0 0 0 0 0 0 0 0 0 0 
280585 0 0 0 0 0 0 0 0 0 0 0 0 0 0 0 
92169 0 0 0 0 0 0 0 0 0 0 0 0 0 0 0 
157705 0 0 0 0 0 0 0 0 0 0 0 0 0 0 0 
223241 0 0 0 0 0 0 0 0 0 0 0 0 0 0 0 
288777 0 0 0 0 0 0 0 0 0 0 0 0 0 0 0 
100361 0 0 0 0 0 0 0 0 0 0 0 0 0 0 0 
165897 0 0 0 0 0 0 0 0 0 0 0 0 0 0 0 
231433 0 0 0 0 0 0 0 0 0 0 0 0 0 0 0 
296969 0 0 0 0 0 0 0 0 0 0 0 0 0 0 0 
76809 0 0 0 0 0 0 0 0 0 0 0 0 0 0 0 
142345 0 0 0 0 0 0 0 0 0 0 0 0 0 0 0 
207881 0 0 0 0 0 0 0 0 0 0 0 0 0 0 0 
273417 0 0 0 0 0 0 0 0 0 0 0 0 0 0 0 
85001 0 0 0 0 0 0 0 0 0 0 0 0 0 0 0 
150537 0 0 0 0 0 0 0 0 0 0 0 0 0 0 0 
216073 0 0 0 0 0 0 0 0 0 0 0 0 0 0 0 
281609 0 0 0 0 0 0 0 0 0 0 0 0 0 0 0 
93193 0 0 0 0 0 0 0 0 0 0 0 0 0 0 0 
158729 0 0 0 0 0 0 0 0 0 0 0 0 0 0 0 
224265 0 0 0 0 0 0 0 0 0 0 0 0 0 0 0 
289801 0 0 0 0 0 0 0 0 0 0 0 0 0 0 0 
101385 0 0 0 0 0 0 0 0 0 0 0 0 0 0 0 
166921 0 0 0 0 0 0 0 0 0 0 0 0 0 0 0 
232457 0 0 0 0 0 0 0 0 0 0 0 0 0 0 0 
297993 0 0 0 0 0 0 0 0 0 0 0 0 0 0 0 
77833 0 0 0 0 0 0 0 0 0 0 0 0 0 0 0 
143369 0 0 0 0 0 0 0 0 0 0 0 0 0 0 0 
208905 0 0 0 0 0 0 0 0 0 0 0 0 0 0 0 
274441 0 0 0 0 0 0 0 0 0 0 0 0 0 0 0 
86025 0 0 0 0 0 0 0 0 0 0 0 0 0 0 0 
151561 0 0 0 0 0 0 0 0 0 0 0 0 0 0 0 
217097 0 0 0 0 0 0 0 0 0 0 0 0 0 0 0 
282633 0 0 0 0 0 0 0 0 0 0 0 0 0 0 0 
94217 0 0 0 0 0 0 0 0 0 0 0 0 0 0 0 
159753 0 0 0 0 0 0 0 0 0 0 0 0 0 0 0 
225289 0 0 0 0 0 0 0 0 0 0 0 0 0 0 0 
290825 0 0 0 0 0 0 0 0 0 0 0 0 0 0 0 
102409 0 0 0 0 0 0 0 0 0 0 0 0 0 0 0 
167945 0 0 0 0 0 0 0 0 0 0 0 0 0 0 0 
233481 0 0 0 0 0 0 0 0 0 0 0 0 0 0 0 
299017 0 0 0 0 0 0 0 0 0 0 0 0 0 0 0 
74785 0 0 0 0 0 0 0 0 0 0 0 0 0 0 0 
140321 0 0 0 0 0 0 0 0 0 0 0 0 0 0 0 
205857 0 0 0 0 0 0 0 0 0 0 0 0 0 0 0 
271393 0 0 0 0 0 0 0 0 0 0 0 0 0 0 0 
82977 0 0 0 0 0 0 0 0 0 0 0 0 0 0 0 
148513 0 0 0 0 0 0 0 0 0 0 0 0 0 0 0 
214049 0 0 0 0 0 0 0 0 0 0 0 0 0 0 0 
279585 0 0 0 0 0 0 0 0 0 0 0 0 0 0 0 
91169 0 0 0 0 0 0 0 0 0 0 0 0 0 0 0 
156705 0 0 0 0 0 0 0 0 0 0 0 0 0 0 0 
222241 0 0 0 0 0 0 0 0 0 0 0 0 0 0 0 
287777 0 0 0 0 0 0 0 0 0 0 0 0 0 0 0 
99361 0 0 0 0 0 0 0 0 0 0 0 0 0 0 0 
164897 0 0 0 0 0 0 0 0 0 0 0 0 0 0 0 
230433 0 0 0 0 0 0 0 0 0 0 0 0 0 0 0 
295969 0 0 0 0 0 0 0 0 0 0 0 0 0 0 0 
75809 0 0 0 0 0 0 0 0 0 0 0 0 0 0 0 
141345 0 0 0 0 0 0 0 0 0 0 0 0 0 0 0 
206881 0 0 0 0 0 0 0 0 0 0 0 0 0 0 0 
272417 0 0 0 0 0 0 0 0 0 0 0 0 0 0 0 
84001 0 0 0 0 0 0 0 0 0 0 0 0 0 0 0 
149537 0 0 0 0 0 0 0 0 0 0 0 0 0 0 0 
215073 0 0 0 0 0 0 0 0 0 0 0 0 0 0 0 
280609 0 0 0 0 0 0 0 0 0 0 0 0 0 0 0 
92193 0 0 0 0 0 0 0 0 0 0 0 0 0 0 0 
157729 0 0 0 0 0 0 0 0 0 0 0 0 0 0 0 
223265 0 0 0 0 0 0 0 0 0 0 0 0 0 0 0 
288801 0 0 0 0 0 0 0 0 0 0 0 0 0 0 0 
100385 0 0 0 0 0 0 0 0 0 0 0 0 0 0 0 
165921 0 0 0 0 0 0 0 0 0 0 0 0 0 0 0 
231457 0 0 0 0 0 0 0 0 0 0 0 0 0 0 0 
296993 0 0 0 0 0 0 0 0 0 0 0 0 0 0 0 
76833 0 0 0 0 0 0 0 0 0 0 0 0 0 0 0 
142369 0 0 0 0 0 0 0 0 0 0 0 0 0 0 0 
207905 0 0 0 0 0 0 0 0 0 0 0 0 0 0 0 
273441 0 0 0 0 0 0 0 0 0 0 0 0 0 0 0 
85025 0 0 0 0 0 0 0 0 0 0 0 0 0 0 0 
150561 0 0 0 0 0 0 0 0 0 0 0 0 0 0 0 
216097 0 0 0 0 0 0 0 0 0 0 0 0 0 0 0 
281633 0 0 0 0 0 0 0 0 0 0 0 0 0 0 0 
93217 0 0 0 0 0 0 0 0 0 0 0 0 0 0 0 
158753 0 0 0 0 0 0 0 0 0 0 0 0 0 0 0 
224289 0 0 0 0 0 0 0 0 0 0 0 0 0 0 0 
289825 0 0 0 0 0 0 0 0 0 0 0 0 0 0 0 
101409 0 0 0 0 0 0 0 0 0 0 0 0 0 0 0 
166945 0 0 0 0 0 0 0 0 0 0 0 0 0 0 0 
232481 0 0 0 0 0 0 0 0 0 0 0 0 0 0 0 
298017 0 0 0 0 0 0 0 0 0 0 0 0 0 0 0 
77857 0 0 0 0 0 0 0 0 0 0 0 0 0 0 0 
143393 0 0 0 0 0 0 0 0 0 0 0 0 0 0 0 
208929 0 0 0 0 0 0 0 0 0 0 0 0 0 0 0 
274465 0 0 0 0 0 0 0 0 0 0 0 0 0 0 0 
86049 0 0 0 0 0 0 0 0 0 0 0 0 0 0 0 
151585 0 0 0 0 0 0 0 0 0 0 0 0 0 0 0 
217121 0 0 0 0 0 0 0 0 0 0 0 0 0 0 0 
282657 0 0 0 0 0 0 0 0 0 0 0 0 0 0 0 
94241 0 0 0 0 0 0 0 0 0 0 0 0 0 0 0 
159777 0 0 0 0 0 0 0 0 0 0 0 0 0 0 0 
225313 0 0 0 0 0 0 0 0 0 0 0 0 0 0 0 
290849 0 0 0 0 0 0 0 0 0 0 0 0 0 0 0 
102433 0 0 0 0 0 0 0 0 0 0 0 0 0 0 0 
167969 0 0 0 0 0 0 0 0 0 0 0 0 0 0 0 
233505 0 0 0 0 0 0 0 0 0 0 0 0 0 0 0 
299041 0 0 0 0 0 0 0 0 0 0 0 0 0 0 0 
74789 0 0 0 0 0 0 0 0 0 0 0 0 0 0 0 
140325 0 0 0 0 0 0 0 0 0 0 0 0 0 0 0 
205861 0 0 0 0 0 0 0 0 0 0 0 0 0 0 0 
271397 0 0 0 0 0 0 0 0 0 0 0 0 0 0 0 
82981 0 0 0 0 0 0 0 0 0 0 0 0 0 0 0 
148517 0 0 0 0 0 0 0 0 0 0 0 0 0 0 0 
214053 0 0 0 0 0 0 0 0 0 0 0 0 0 0 0 
279589 0 0 0 0 0 0 0 0 0 0 0 0 0 0 0 
91173 0 0 0 0 0 0 0 0 0 0 0 0 0 0 0 
156709 0 0 0 0 0 0 0 0 0 0 0 0 0 0 0 
222245 0 0 0 0 0 0 0 0 0 0 0 0 0 0 0 
287781 0 0 0 0 0 0 0 0 0 0 0 0 0 0 0 
99365 0 0 0 0 0 0 0 0 0 0 0 0 0 0 0 
164901 0 0 0 0 0 0 0 0 0 0 0 0 0 0 0 
230437 0 0 0 0 0 0 0 0 0 0 0 0 0 0 0 
295973 0 0 0 0 0 0 0 0 0 0 0 0 0 0 0 
75813 0 0 0 0 0 0 0 0 0 0 0 0 0 0 0 
141349 0 0 0 0 0 0 0 0 0 0 0 0 0 0 0 
206885 0 0 0 0 0 0 0 0 0 0 0 0 0 0 0 
272421 0 0 0 0 0 0 0 0 0 0 0 0 0 0 0 
84005 0 0 0 0 0 0 0 0 0 0 0 0 0 0 0 
149541 0 0 0 0 0 0 0 0 0 0 0 0 0 0 0 
215077 0 0 0 0 0 0 0 0 0 0 0 0 0 0 0 
280613 0 0 0 0 0 0 0 0 0 0 0 0 0 0 0 
92197 0 0 0 0 0 0 0 0 0 0 0 0 0 0 0 
157733 0 0 0 0 0 0 0 0 0 0 0 0 0 0 0 
223269 0 0 0 0 0 0 0 0 0 0 0 0 0 0 0 
288805 0 0 0 0 0 0 0 0 0 0 0 0 0 0 0 
100389 0 0 0 0 0 0 0 0 0 0 0 0 0 0 0 
165925 0 0 0 0 0 0 0 0 0 0 0 0 0 0 0 
231461 0 0 0 0 0 0 0 0 0 0 0 0 0 0 0 
296997 0 0 0 0 0 0 0 0 0 0 0 0 0 0 0 
76837 0 0 0 0 0 0 0 0 0 0 0 0 0 0 0 
142373 0 0 0 0 0 0 0 0 0 0 0 0 0 0 0 
207909 0 0 0 0 0 0 0 0 0 0 0 0 0 0 0 
273445 0 0 0 0 0 0 0 0 0 0 0 0 0 0 0 
85029 0 0 0 0 0 0 0 0 0 0 0 0 0 0 0 
150565 0 0 0 0 0 0 0 0 0 0 0 0 0 0 0 
216101 0 0 0 0 0 0 0 0 0 0 0 0 0 0 0 
281637 0 0 0 0 0 0 0 0 0 0 0 0 0 0 0 
93221 0 0 0 0 0 0 0 0 0 0 0 0 0 0 0 
158757 0 0 0 0 0 0 0 0 0 0 0 0 0 0 0 
224293 0 0 0 0 0 0 0 0 0 0 0 0 0 0 0 
289829 0 0 0 0 0 0 0 0 0 0 0 0 0 0 0 
101413 0 0 0 0 0 0 0 0 0 0 0 0 0 0 0 
166949 0 0 0 0 0 0 0 0 0 0 0 0 0 0 0 
232485 0 0 0 0 0 0 0 0 0 0 0 0 0 0 0 
298021 0 0 0 0 0 0 0 0 0 0 0 0 0 0 0 
77861 0 0 0 0 0 0 0 0 0 0 0 0 0 0 0 
143397 0 0 0 0 0 0 0 0 0 0 0 0 0 0 0 
208933 0 0 0 0 0 0 0 0 0 0 0 0 0 0 0 
274469 0 0 0 0 0 0 0 0 0 0 0 0 0 0 0 
86053 0 0 0 0 0 0 0 0 0 0 0 0 0 0 0 
151589 0 0 0 0 0 0 0 0 0 0 0 0 0 0 0 
217125 0 0 0 0 0 0 0 0 0 0 0 0 0 0 0 
282661 0 0 0 0 0 0 0 0 0 0 0 0 0 0 0 
94245 0 0 0 0 0 0 0 0 0 0 0 0 0 0 0 
159781 0 0 0 0 0 0 0 0 0 0 0 0 0 0 0 
225317 0 0 0 0 0 0 0 0 0 0 0 0 0 0 0 
290853 0 0 0 0 0 0 0 0 0 0 0 0 0 0 0 
102437 0 0 0 0 0 0 0 0 0 0 0 0 0 0 0 
167973 0 0 0 0 0 0 0 0 0 0 0 0 0 0 0 
233509 0 0 0 0 0 0 0 0 0 0 0 0 0 0 0 
299045 0 0 0 0 0 0 0 0 0 0 0 0 0 0 0 
74813 0 0 0 0 0 0 0 0 0 0 0 0 0 0 0 
140349 0 0 0 0 0 0 0 0 0 0 0 0 0 0 0 
205885 0 0 0 0 0 0 0 0 0 0 0 0 0 0 0 
271421 0 0 0 0 0 0 0 0 0 0 0 0 0 0 0 
83005 0 0 0 0 0 0 0 0 0 0 0 0 0 0 0 
148541 0 0 0 0 0 0 0 0 0 0 0 0 0 0 0 
214077 0 0 0 0 0 0 0 0 0 0 0 0 0 0 0 
279613 0 0 0 0 0 0 0 0 0 0 0 0 0 0 0 
91197 0 0 0 0 0 0 0 0 0 0 0 0 0 0 0 
156733 0 0 0 0 0 0 0 0 0 0 0 0 0 0 0 
222269 0 0 0 0 0 0 0 0 0 0 0 0 0 0 0 
287805 0 0 0 0 0 0 0 0 0 0 0 0 0 0 0 
99389 0 0 0 0 0 0 0 0 0 0 0 0 0 0 0 
164925 0 0 0 0 0 0 0 0 0 0 0 0 0 0 0 
230461 0 0 0 0 0 0 0 0 0 0 0 0 0 0 0 
295997 0 0 0 0 0 0 0 0 0 0 0 0 0 0 0 
75837 0 0 0 0 0 0 0 0 0 0 0 0 0 0 0 
141373 0 0 0 0 0 0 0 0 0 0 0 0 0 0 0 
206909 0 0 0 0 0 0 0 0 0 0 0 0 0 0 0 
272445 0 0 0 0 0 0 0 0 0 0 0 0 0 0 0 
84029 0 0 0 0 0 0 0 0 0 0 0 0 0 0 0 
149565 0 0 0 0 0 0 0 0 0 0 0 0 0 0 0 
215101 0 0 0 0 0 0 0 0 0 0 0 0 0 0 0 
280637 0 0 0 0 0 0 0 0 0 0 0 0 0 0 0 
92221 0 0 0 0 0 0 0 0 0 0 0 0 0 0 0 
157757 0 0 0 0 0 0 0 0 0 0 0 0 0 0 0 
223293 0 0 0 0 0 0 0 0 0 0 0 0 0 0 0 
288829 0 0 0 0 0 0 0 0 0 0 0 0 0 0 0 
100413 0 0 0 0 0 0 0 0 0 0 0 0 0 0 0 
165949 0 0 0 0 0 0 0 0 0 0 0 0 0 0 0 
231485 0 0 0 0 0 0 0 0 0 0 0 0 0 0 0 
297021 0 0 0 0 0 0 0 0 0 0 0 0 0 0 0 
76861 0 0 0 0 0 0 0 0 0 0 0 0 0 0 0 
142397 0 0 0 0 0 0 0 0 0 0 0 0 0 0 0 
207933 0 0 0 0 0 0 0 0 0 0 0 0 0 0 0 
273469 0 0 0 0 0 0 0 0 0 0 0 0 0 0 0 
85053 0 0 0 0 0 0 0 0 0 0 0 0 0 0 0 
150589 0 0 0 0 0 0 0 0 0 0 0 0 0 0 0 
216125 0 0 0 0 0 0 0 0 0 0 0 0 0 0 0 
281661 0 0 0 0 0 0 0 0 0 0 0 0 0 0 0 
93245 0 0 0 0 0 0 0 0 0 0 0 0 0 0 0 
158781 0 0 0 0 0 0 0 0 0 0 0 0 0 0 0 
224317 0 0 0 0 0 0 0 0 0 0 0 0 0 0 0 
289853 0 0 0 0 0 0 0 0 0 0 0 0 0 0 0 
101437 0 0 0 0 0 0 0 0 0 0 0 0 0 0 0 
166973 0 0 0 0 0 0 0 0 0 0 0 0 0 0 0 
232509 0 0 0 0 0 0 0 0 0 0 0 0 0 0 0 
298045 0 0 0 0 0 0 0 0 0 0 0 0 0 0 0 
77885 0 0 0 0 0 0 0 0 0 0 0 0 0 0 0 
143421 0 0 0 0 0 0 0 0 0 0 0 0 0 0 0 
208957 0 0 0 0 0 0 0 0 0 0 0 0 0 0 0 
274493 0 0 0 0 0 0 0 0 0 0 0 0 0 0 0 
86077 0 0 0 0 0 0 0 0 0 0 0 0 0 0 0 
151613 0 0 0 0 0 0 0 0 0 0 0 0 0 0 0 
217149 0 0 0 0 0 0 0 0 0 0 0 0 0 0 0 
282685 0 0 0 0 0 0 0 0 0 0 0 0 0 0 0 
94269 0 0 0 0 0 0 0 0 0 0 0 0 0 0 0 
159805 0 0 0 0 0 0 0 0 0 0 0 0 0 0 0 
225341 0 0 0 0 0 0 0 0 0 0 0 0 0 0 0 
290877 0 0 0 0 0 0 0 0 0 0 0 0 0 0 0 
102461 0 0 0 0 0 0 0 0 0 0 0 0 0 0 0 
167997 0 0 0 0 0 0 0 0 0 0 0 0 0 0 0 
233533 0 0 0 0 0 0 0 0 0 0 0 0 0 0 0 
299069 0 0 0 0 0 0 0 0 0 0 0 0 0 0 0 
74817 0 0 0 0 0 0 0 0 0 0 0 0 0 0 0 
140353 0 0 0 0 0 0 0 0 0 0 0 0 0 0 0 
205889 0 0 0 0 0 0 0 0 0 0 0 0 0 0 0 
271425 0 0 0 0 0 0 0 0 0 0 0 0 0 0 0 
83009 0 0 0 0 0 0 0 0 0 0 0 0 0 0 0 
148545 0 0 0 0 0 0 0 0 0 0 0 0 0 0 0 
214081 0 0 0 0 0 0 0 0 0 0 0 0 0 0 0 
279617 0 0 0 0 0 0 0 0 0 0 0 0 0 0 0 
91201 0 0 0 0 0 0 0 0 0 0 0 0 0 0 0 
156737 0 0 0 0 0 0 0 0 0 0 0 0 0 0 0 
222273 0 0 0 0 0 0 0 0 0 0 0 0 0 0 0 
287809 0 0 0 0 0 0 0 0 0 0 0 0 0 0 0 
99393 0 0 0 0 0 0 0 0 0 0 0 0 0 0 0 
164929 0 0 0 0 0 0 0 0 0 0 0 0 0 0 0 
230465 0 0 0 0 0 0 0 0 0 0 0 0 0 0 0 
296001 0 0 0 0 0 0 0 0 0 0 0 0 0 0 0 
75841 0 0 0 0 0 0 0 0 0 0 0 0 0 0 0 
141377 0 0 0 0 0 0 0 0 0 0 0 0 0 0 0 
206913 0 0 0 0 0 0 0 0 0 0 0 0 0 0 0 
272449 0 0 0 0 0 0 0 0 0 0 0 0 0 0 0 
84033 0 0 0 0 0 0 0 0 0 0 0 0 0 0 0 
149569 0 0 0 0 0 0 0 0 0 0 0 0 0 0 0 
215105 0 0 0 0 0 0 0 0 0 0 0 0 0 0 0 
280641 0 0 0 0 0 0 0 0 0 0 0 0 0 0 0 
92225 0 0 0 0 0 0 0 0 0 0 0 0 0 0 0 
157761 0 0 0 0 0 0 0 0 0 0 0 0 0 0 0 
223297 0 0 0 0 0 0 0 0 0 0 0 0 0 0 0 
288833 0 0 0 0 0 0 0 0 0 0 0 0 0 0 0 
100417 0 0 0 0 0 0 0 0 0 0 0 0 0 0 0 
165953 0 0 0 0 0 0 0 0 0 0 0 0 0 0 0 
231489 0 0 0 0 0 0 0 0 0 0 0 0 0 0 0 
297025 0 0 0 0 0 0 0 0 0 0 0 0 0 0 0 
76865 0 0 0 0 0 0 0 0 0 0 0 0 0 0 0 
142401 0 0 0 0 0 0 0 0 0 0 0 0 0 0 0 
207937 0 0 0 0 0 0 0 0 0 0 0 0 0 0 0 
273473 0 0 0 0 0 0 0 0 0 0 0 0 0 0 0 
85057 0 0 0 0 0 0 0 0 0 0 0 0 0 0 0 
150593 0 0 0 0 0 0 0 0 0 0 0 0 0 0 0 
216129 0 0 0 0 0 0 0 0 0 0 0 0 0 0 0 
281665 0 0 0 0 0 0 0 0 0 0 0 0 0 0 0 
93249 0 0 0 0 0 0 0 0 0 0 0 0 0 0 0 
158785 0 0 0 0 0 0 0 0 0 0 0 0 0 0 0 
224321 0 0 0 0 0 0 0 0 0 0 0 0 0 0 0 
289857 0 0 0 0 0 0 0 0 0 0 0 0 0 0 0 
101441 0 0 0 0 0 0 0 0 0 0 0 0 0 0 0 
166977 0 0 0 0 0 0 0 0 0 0 0 0 0 0 0 
232513 0 0 0 0 0 0 0 0 0 0 0 0 0 0 0 
298049 0 0 0 0 0 0 0 0 0 0 0 0 0 0 0 
77889 0 0 0 0 0 0 0 0 0 0 0 0 0 0 0 
143425 0 0 0 0 0 0 0 0 0 0 0 0 0 0 0 
208961 0 0 0 0 0 0 0 0 0 0 0 0 0 0 0 
274497 0 0 0 0 0 0 0 0 0 0 0 0 0 0 0 
86081 0 0 0 0 0 0 0 0 0 0 0 0 0 0 0 
151617 0 0 0 0 0 0 0 0 0 0 0 0 0 0 0 
217153 0 0 0 0 0 0 0 0 0 0 0 0 0 0 0 
282689 0 0 0 0 0 0 0 0 0 0 0 0 0 0 0 
94273 0 0 0 0 0 0 0 0 0 0 0 0 0 0 0 
159809 0 0 0 0 0 0 0 0 0 0 0 0 0 0 0 
225345 0 0 0 0 0 0 0 0 0 0 0 0 0 0 0 
290881 0 0 0 0 0 0 0 0 0 0 0 0 0 0 0 
102465 0 0 0 0 0 0 0 0 0 0 0 0 0 0 0 
168001 0 0 0 0 0 0 0 0 0 0 0 0 0 0 0 
233537 0 0 0 0 0 0 0 0 0 0 0 0 0 0 0 
299073 0 0 0 0 0 0 0 0 0 0 0 0 0 0 0 
74821 0 0 0 0 0 0 0 0 0 0 0 0 0 0 0 
140357 0 0 0 0 0 0 0 0 0 0 0 0 0 0 0 
205893 0 0 0 0 0 0 0 0 0 0 0 0 0 0 0 
271429 0 0 0 0 0 0 0 0 0 0 0 0 0 0 0 
83013 0 0 0 0 0 0 0 0 0 0 0 0 0 0 0 
148549 0 0 0 0 0 0 0 0 0 0 0 0 0 0 0 
214085 0 0 0 0 0 0 0 0 0 0 0 0 0 0 0 
279621 0 0 0 0 0 0 0 0 0 0 0 0 0 0 0 
91205 0 0 0 0 0 0 0 0 0 0 0 0 0 0 0 
156741 0 0 0 0 0 0 0 0 0 0 0 0 0 0 0 
222277 0 0 0 0 0 0 0 0 0 0 0 0 0 0 0 
287813 0 0 0 0 0 0 0 0 0 0 0 0 0 0 0 
99397 0 0 0 0 0 0 0 0 0 0 0 0 0 0 0 
164933 0 0 0 0 0 0 0 0 0 0 0 0 0 0 0 
230469 0 0 0 0 0 0 0 0 0 0 0 0 0 0 0 
296005 0 0 0 0 0 0 0 0 0 0 0 0 0 0 0 
75845 0 0 0 0 0 0 0 0 0 0 0 0 0 0 0 
141381 0 0 0 0 0 0 0 0 0 0 0 0 0 0 0 
206917 0 0 0 0 0 0 0 0 0 0 0 0 0 0 0 
272453 0 0 0 0 0 0 0 0 0 0 0 0 0 0 0 
84037 0 0 0 0 0 0 0 0 0 0 0 0 0 0 0 
149573 0 0 0 0 0 0 0 0 0 0 0 0 0 0 0 
215109 0 0 0 0 0 0 0 0 0 0 0 0 0 0 0 
280645 0 0 0 0 0 0 0 0 0 0 0 0 0 0 0 
92229 0 0 0 0 0 0 0 0 0 0 0 0 0 0 0 
157765 0 0 0 0 0 0 0 0 0 0 0 0 0 0 0 
223301 0 0 0 0 0 0 0 0 0 0 0 0 0 0 0 
288837 0 0 0 0 0 0 0 0 0 0 0 0 0 0 0 
100421 0 0 0 0 0 0 0 0 0 0 0 0 0 0 0 
165957 0 0 0 0 0 0 0 0 0 0 0 0 0 0 0 
231493 0 0 0 0 0 0 0 0 0 0 0 0 0 0 0 
297029 0 0 0 0 0 0 0 0 0 0 0 0 0 0 0 
76869 0 0 0 0 0 0 0 0 0 0 0 0 0 0 0 
142405 0 0 0 0 0 0 0 0 0 0 0 0 0 0 0 
207941 0 0 0 0 0 0 0 0 0 0 0 0 0 0 0 
273477 0 0 0 0 0 0 0 0 0 0 0 0 0 0 0 
85061 0 0 0 0 0 0 0 0 0 0 0 0 0 0 0 
150597 0 0 0 0 0 0 0 0 0 0 0 0 0 0 0 
216133 0 0 0 0 0 0 0 0 0 0 0 0 0 0 0 
281669 0 0 0 0 0 0 0 0 0 0 0 0 0 0 0 
93253 0 0 0 0 0 0 0 0 0 0 0 0 0 0 0 
158789 0 0 0 0 0 0 0 0 0 0 0 0 0 0 0 
224325 0 0 0 0 0 0 0 0 0 0 0 0 0 0 0 
289861 0 0 0 0 0 0 0 0 0 0 0 0 0 0 0 
101445 0 0 0 0 0 0 0 0 0 0 0 0 0 0 0 
166981 0 0 0 0 0 0 0 0 0 0 0 0 0 0 0 
232517 0 0 0 0 0 0 0 0 0 0 0 0 0 0 0 
298053 0 0 0 0 0 0 0 0 0 0 0 0 0 0 0 
77893 0 0 0 0 0 0 0 0 0 0 0 0 0 0 0 
143429 0 0 0 0 0 0 0 0 0 0 0 0 0 0 0 
208965 0 0 0 0 0 0 0 0 0 0 0 0 0 0 0 
274501 0 0 0 0 0 0 0 0 0 0 0 0 0 0 0 
86085 0 0 0 0 0 0 0 0 0 0 0 0 0 0 0 
151621 0 0 0 0 0 0 0 0 0 0 0 0 0 0 0 
217157 0 0 0 0 0 0 0 0 0 0 0 0 0 0 0 
282693 0 0 0 0 0 0 0 0 0 0 0 0 0 0 0 
94277 0 0 0 0 0 0 0 0 0 0 0 0 0 0 0 
159813 0 0 0 0 0 0 0 0 0 0 0 0 0 0 0 
225349 0 0 0 0 0 0 0 0 0 0 0 0 0 0 0 
290885 0 0 0 0 0 0 0 0 0 0 0 0 0 0 0 
102469 0 0 0 0 0 0 0 0 0 0 0 0 0 0 0 
168005 0 0 0 0 0 0 0 0 0 0 0 0 0 0 0 
233541 0 0 0 0 0 0 0 0 0 0 0 0 0 0 0 
299077 0 0 0 0 0 0 0 0 0 0 0 0 0 0 0 
74845 0 0 0 0 0 0 0 0 0 0 0 0 0 0 0 
140381 0 0 0 0 0 0 0 0 0 0 0 0 0 0 0 
205917 0 0 0 0 0 0 0 0 0 0 0 0 0 0 0 
271453 0 0 0 0 0 0 0 0 0 0 0 0 0 0 0 
83037 0 0 0 0 0 0 0 0 0 0 0 0 0 0 0 
148573 0 0 0 0 0 0 0 0 0 0 0 0 0 0 0 
214109 0 0 0 0 0 0 0 0 0 0 0 0 0 0 0 
279645 0 0 0 0 0 0 0 0 0 0 0 0 0 0 0 
91229 0 0 0 0 0 0 0 0 0 0 0 0 0 0 0 
156765 0 0 0 0 0 0 0 0 0 0 0 0 0 0 0 
222301 0 0 0 0 0 0 0 0 0 0 0 0 0 0 0 
287837 0 0 0 0 0 0 0 0 0 0 0 0 0 0 0 
99421 0 0 0 0 0 0 0 0 0 0 0 0 0 0 0 
164957 0 0 0 0 0 0 0 0 0 0 0 0 0 0 0 
230493 0 0 0 0 0 0 0 0 0 0 0 0 0 0 0 
296029 0 0 0 0 0 0 0 0 0 0 0 0 0 0 0 
75869 0 0 0 0 0 0 0 0 0 0 0 0 0 0 0 
141405 0 0 0 0 0 0 0 0 0 0 0 0 0 0 0 
206941 0 0 0 0 0 0 0 0 0 0 0 0 0 0 0 
272477 0 0 0 0 0 0 0 0 0 0 0 0 0 0 0 
84061 0 0 0 0 0 0 0 0 0 0 0 0 0 0 0 
149597 0 0 0 0 0 0 0 0 0 0 0 0 0 0 0 
215133 0 0 0 0 0 0 0 0 0 0 0 0 0 0 0 
280669 0 0 0 0 0 0 0 0 0 0 0 0 0 0 0 
92253 0 0 0 0 0 0 0 0 0 0 0 0 0 0 0 
157789 0 0 0 0 0 0 0 0 0 0 0 0 0 0 0 
223325 0 0 0 0 0 0 0 0 0 0 0 0 0 0 0 
288861 0 0 0 0 0 0 0 0 0 0 0 0 0 0 0 
100445 0 0 0 0 0 0 0 0 0 0 0 0 0 0 0 
165981 0 0 0 0 0 0 0 0 0 0 0 0 0 0 0 
231517 0 0 0 0 0 0 0 0 0 0 0 0 0 0 0 
297053 0 0 0 0 0 0 0 0 0 0 0 0 0 0 0 
76893 0 0 0 0 0 0 0 0 0 0 0 0 0 0 0 
142429 0 0 0 0 0 0 0 0 0 0 0 0 0 0 0 
207965 0 0 0 0 0 0 0 0 0 0 0 0 0 0 0 
273501 0 0 0 0 0 0 0 0 0 0 0 0 0 0 0 
85085 0 0 0 0 0 0 0 0 0 0 0 0 0 0 0 
150621 0 0 0 0 0 0 0 0 0 0 0 0 0 0 0 
216157 0 0 0 0 0 0 0 0 0 0 0 0 0 0 0 
281693 0 0 0 0 0 0 0 0 0 0 0 0 0 0 0 
93277 0 0 0 0 0 0 0 0 0 0 0 0 0 0 0 
158813 0 0 0 0 0 0 0 0 0 0 0 0 0 0 0 
224349 0 0 0 0 0 0 0 0 0 0 0 0 0 0 0 
289885 0 0 0 0 0 0 0 0 0 0 0 0 0 0 0 
101469 0 0 0 0 0 0 0 0 0 0 0 0 0 0 0 
167005 0 0 0 0 0 0 0 0 0 0 0 0 0 0 0 
232541 0 0 0 0 0 0 0 0 0 0 0 0 0 0 0 
298077 0 0 0 0 0 0 0 0 0 0 0 0 0 0 0 
77917 0 0 0 0 0 0 0 0 0 0 0 0 0 0 0 
143453 0 0 0 0 0 0 0 0 0 0 0 0 0 0 0 
208989 0 0 0 0 0 0 0 0 0 0 0 0 0 0 0 
274525 0 0 0 0 0 0 0 0 0 0 0 0 0 0 0 
86109 0 0 0 0 0 0 0 0 0 0 0 0 0 0 0 
151645 0 0 0 0 0 0 0 0 0 0 0 0 0 0 0 
217181 0 0 0 0 0 0 0 0 0 0 0 0 0 0 0 
282717 0 0 0 0 0 0 0 0 0 0 0 0 0 0 0 
94301 0 0 0 0 0 0 0 0 0 0 0 0 0 0 0 
159837 0 0 0 0 0 0 0 0 0 0 0 0 0 0 0 
225373 0 0 0 0 0 0 0 0 0 0 0 0 0 0 0 
290909 0 0 0 0 0 0 0 0 0 0 0 0 0 0 0 
102493 0 0 0 0 0 0 0 0 0 0 0 0 0 0 0 
168029 0 0 0 0 0 0 0 0 0 0 0 0 0 0 0 
233565 0 0 0 0 0 0 0 0 0 0 0 0 0 0 0 
299101 0 0 0 0 0 0 0 0 0 0 0 0 0 0 0 
74849 0 0 0 0 0 0 0 0 0 0 0 0 0 0 0 
140385 0 0 0 0 0 0 0 0 0 0 0 0 0 0 0 
205921 0 0 0 0 0 0 0 0 0 0 0 0 0 0 0 
271457 0 0 0 0 0 0 0 0 0 0 0 0 0 0 0 
83041 0 0 0 0 0 0 0 0 0 0 0 0 0 0 0 
148577 0 0 0 0 0 0 0 0 0 0 0 0 0 0 0 
214113 0 0 0 0 0 0 0 0 0 0 0 0 0 0 0 
279649 0 0 0 0 0 0 0 0 0 0 0 0 0 0 0 
91233 0 0 0 0 0 0 0 0 0 0 0 0 0 0 0 
156769 0 0 0 0 0 0 0 0 0 0 0 0 0 0 0 
222305 0 0 0 0 0 0 0 0 0 0 0 0 0 0 0 
287841 0 0 0 0 0 0 0 0 0 0 0 0 0 0 0 
99425 0 0 0 0 0 0 0 0 0 0 0 0 0 0 0 
164961 0 0 0 0 0 0 0 0 0 0 0 0 0 0 0 
230497 0 0 0 0 0 0 0 0 0 0 0 0 0 0 0 
296033 0 0 0 0 0 0 0 0 0 0 0 0 0 0 0 
75873 0 0 0 0 0 0 0 0 0 0 0 0 0 0 0 
141409 0 0 0 0 0 0 0 0 0 0 0 0 0 0 0 
206945 0 0 0 0 0 0 0 0 0 0 0 0 0 0 0 
272481 0 0 0 0 0 0 0 0 0 0 0 0 0 0 0 
84065 0 0 0 0 0 0 0 0 0 0 0 0 0 0 0 
149601 0 0 0 0 0 0 0 0 0 0 0 0 0 0 0 
215137 0 0 0 0 0 0 0 0 0 0 0 0 0 0 0 
280673 0 0 0 0 0 0 0 0 0 0 0 0 0 0 0 
92257 0 0 0 0 0 0 0 0 0 0 0 0 0 0 0 
157793 0 0 0 0 0 0 0 0 0 0 0 0 0 0 0 
223329 0 0 0 0 0 0 0 0 0 0 0 0 0 0 0 
288865 0 0 0 0 0 0 0 0 0 0 0 0 0 0 0 
100449 0 0 0 0 0 0 0 0 0 0 0 0 0 0 0 
165985 0 0 0 0 0 0 0 0 0 0 0 0 0 0 0 
231521 0 0 0 0 0 0 0 0 0 0 0 0 0 0 0 
297057 0 0 0 0 0 0 0 0 0 0 0 0 0 0 0 
76897 0 0 0 0 0 0 0 0 0 0 0 0 0 0 0 
142433 0 0 0 0 0 0 0 0 0 0 0 0 0 0 0 
207969 0 0 0 0 0 0 0 0 0 0 0 0 0 0 0 
273505 0 0 0 0 0 0 0 0 0 0 0 0 0 0 0 
85089 0 0 0 0 0 0 0 0 0 0 0 0 0 0 0 
150625 0 0 0 0 0 0 0 0 0 0 0 0 0 0 0 
216161 0 0 0 0 0 0 0 0 0 0 0 0 0 0 0 
281697 0 0 0 0 0 0 0 0 0 0 0 0 0 0 0 
93281 0 0 0 0 0 0 0 0 0 0 0 0 0 0 0 
158817 0 0 0 0 0 0 0 0 0 0 0 0 0 0 0 
224353 0 0 0 0 0 0 0 0 0 0 0 0 0 0 0 
289889 0 0 0 0 0 0 0 0 0 0 0 0 0 0 0 
101473 0 0 0 0 0 0 0 0 0 0 0 0 0 0 0 
167009 0 0 0 0 0 0 0 0 0 0 0 0 0 0 0 
232545 0 0 0 0 0 0 0 0 0 0 0 0 0 0 0 
298081 0 0 0 0 0 0 0 0 0 0 0 0 0 0 0 
77921 0 0 0 0 0 0 0 0 0 0 0 0 0 0 0 
143457 0 0 0 0 0 0 0 0 0 0 0 0 0 0 0 
208993 0 0 0 0 0 0 0 0 0 0 0 0 0 0 0 
274529 0 0 0 0 0 0 0 0 0 0 0 0 0 0 0 
86113 0 0 0 0 0 0 0 0 0 0 0 0 0 0 0 
151649 0 0 0 0 0 0 0 0 0 0 0 0 0 0 0 
217185 0 0 0 0 0 0 0 0 0 0 0 0 0 0 0 
282721 0 0 0 0 0 0 0 0 0 0 0 0 0 0 0 
94305 0 0 0 0 0 0 0 0 0 0 0 0 0 0 0 
159841 0 0 0 0 0 0 0 0 0 0 0 0 0 0 0 
225377 0 0 0 0 0 0 0 0 0 0 0 0 0 0 0 
290913 0 0 0 0 0 0 0 0 0 0 0 0 0 0 0 
102497 0 0 0 0 0 0 0 0 0 0 0 0 0 0 0 
168033 0 0 0 0 0 0 0 0 0 0 0 0 0 0 0 
233569 0 0 0 0 0 0 0 0 0 0 0 0 0 0 0 
299105 0 0 0 0 0 0 0 0 0 0 0 0 0 0 0 
74873 0 0 0 0 0 0 0 0 0 0 0 0 0 0 0 
140409 0 0 0 0 0 0 0 0 0 0 0 0 0 0 0 
205945 0 0 0 0 0 0 0 0 0 0 0 0 0 0 0 
271481 0 0 0 0 0 0 0 0 0 0 0 0 0 0 0 
83065 0 0 0 0 0 0 0 0 0 0 0 0 0 0 0 
148601 0 0 0 0 0 0 0 0 0 0 0 0 0 0 0 
214137 0 0 0 0 0 0 0 0 0 0 0 0 0 0 0 
279673 0 0 0 0 0 0 0 0 0 0 0 0 0 0 0 
91257 0 0 0 0 0 0 0 0 0 0 0 0 0 0 0 
156793 0 0 0 0 0 0 0 0 0 0 0 0 0 0 0 
222329 0 0 0 0 0 0 0 0 0 0 0 0 0 0 0 
287865 0 0 0 0 0 0 0 0 0 0 0 0 0 0 0 
99449 0 0 0 0 0 0 0 0 0 0 0 0 0 0 0 
164985 0 0 0 0 0 0 0 0 0 0 0 0 0 0 0 
230521 0 0 0 0 0 0 0 0 0 0 0 0 0 0 0 
296057 0 0 0 0 0 0 0 0 0 0 0 0 0 0 0 
75897 0 0 0 0 0 0 0 0 0 0 0 0 0 0 0 
141433 0 0 0 0 0 0 0 0 0 0 0 0 0 0 0 
206969 0 0 0 0 0 0 0 0 0 0 0 0 0 0 0 
272505 0 0 0 0 0 0 0 0 0 0 0 0 0 0 0 
84089 0 0 0 0 0 0 0 0 0 0 0 0 0 0 0 
149625 0 0 0 0 0 0 0 0 0 0 0 0 0 0 0 
215161 0 0 0 0 0 0 0 0 0 0 0 0 0 0 0 
280697 0 0 0 0 0 0 0 0 0 0 0 0 0 0 0 
92281 0 0 0 0 0 0 0 0 0 0 0 0 0 0 0 
157817 0 0 0 0 0 0 0 0 0 0 0 0 0 0 0 
223353 0 0 0 0 0 0 0 0 0 0 0 0 0 0 0 
288889 0 0 0 0 0 0 0 0 0 0 0 0 0 0 0 
100473 0 0 0 0 0 0 0 0 0 0 0 0 0 0 0 
166009 0 0 0 0 0 0 0 0 0 0 0 0 0 0 0 
231545 0 0 0 0 0 0 0 0 0 0 0 0 0 0 0 
297081 0 0 0 0 0 0 0 0 0 0 0 0 0 0 0 
76921 0 0 0 0 0 0 0 0 0 0 0 0 0 0 0 
142457 0 0 0 0 0 0 0 0 0 0 0 0 0 0 0 
207993 0 0 0 0 0 0 0 0 0 0 0 0 0 0 0 
273529 0 0 0 0 0 0 0 0 0 0 0 0 0 0 0 
85113 0 0 0 0 0 0 0 0 0 0 0 0 0 0 0 
150649 0 0 0 0 0 0 0 0 0 0 0 0 0 0 0 
216185 0 0 0 0 0 0 0 0 0 0 0 0 0 0 0 
281721 0 0 0 0 0 0 0 0 0 0 0 0 0 0 0 
93305 0 0 0 0 0 0 0 0 0 0 0 0 0 0 0 
158841 0 0 0 0 0 0 0 0 0 0 0 0 0 0 0 
224377 0 0 0 0 0 0 0 0 0 0 0 0 0 0 0 
289913 0 0 0 0 0 0 0 0 0 0 0 0 0 0 0 
101497 0 0 0 0 0 0 0 0 0 0 0 0 0 0 0 
167033 0 0 0 0 0 0 0 0 0 0 0 0 0 0 0 
232569 0 0 0 0 0 0 0 0 0 0 0 0 0 0 0 
298105 0 0 0 0 0 0 0 0 0 0 0 0 0 0 0 
77945 0 0 0 0 0 0 0 0 0 0 0 0 0 0 0 
143481 0 0 0 0 0 0 0 0 0 0 0 0 0 0 0 
209017 0 0 0 0 0 0 0 0 0 0 0 0 0 0 0 
274553 0 0 0 0 0 0 0 0 0 0 0 0 0 0 0 
86137 0 0 0 0 0 0 0 0 0 0 0 0 0 0 0 
151673 0 0 0 0 0 0 0 0 0 0 0 0 0 0 0 
217209 0 0 0 0 0 0 0 0 0 0 0 0 0 0 0 
282745 0 0 0 0 0 0 0 0 0 0 0 0 0 0 0 
94329 0 0 0 0 0 0 0 0 0 0 0 0 0 0 0 
159865 0 0 0 0 0 0 0 0 0 0 0 0 0 0 0 
225401 0 0 0 0 0 0 0 0 0 0 0 0 0 0 0 
290937 0 0 0 0 0 0 0 0 0 0 0 0 0 0 0 
102521 0 0 0 0 0 0 0 0 0 0 0 0 0 0 0 
168057 0 0 0 0 0 0 0 0 0 0 0 0 0 0 0 
233593 0 0 0 0 0 0 0 0 0 0 0 0 0 0 0 
299129 0 0 0 0 0 0 0 0 0 0 0 0 0 0 0 
74877 0 0 0 0 0 0 0 0 0 0 0 0 0 0 0 
140413 0 0 0 0 0 0 0 0 0 0 0 0 0 0 0 
205949 0 0 0 0 0 0 0 0 0 0 0 0 0 0 0 
271485 0 0 0 0 0 0 0 0 0 0 0 0 0 0 0 
83069 0 0 0 0 0 0 0 0 0 0 0 0 0 0 0 
148605 0 0 0 0 0 0 0 0 0 0 0 0 0 0 0 
214141 0 0 0 0 0 0 0 0 0 0 0 0 0 0 0 
279677 0 0 0 0 0 0 0 0 0 0 0 0 0 0 0 
91261 0 0 0 0 0 0 0 0 0 0 0 0 0 0 0 
156797 0 0 0 0 0 0 0 0 0 0 0 0 0 0 0 
222333 0 0 0 0 0 0 0 0 0 0 0 0 0 0 0 
287869 0 0 0 0 0 0 0 0 0 0 0 0 0 0 0 
99453 0 0 0 0 0 0 0 0 0 0 0 0 0 0 0 
164989 0 0 0 0 0 0 0 0 0 0 0 0 0 0 0 
230525 0 0 0 0 0 0 0 0 0 0 0 0 0 0 0 
296061 0 0 0 0 0 0 0 0 0 0 0 0 0 0 0 
75901 0 0 0 0 0 0 0 0 0 0 0 0 0 0 0 
141437 0 0 0 0 0 0 0 0 0 0 0 0 0 0 0 
206973 0 0 0 0 0 0 0 0 0 0 0 0 0 0 0 
272509 0 0 0 0 0 0 0 0 0 0 0 0 0 0 0 
84093 0 0 0 0 0 0 0 0 0 0 0 0 0 0 0 
149629 0 0 0 0 0 0 0 0 0 0 0 0 0 0 0 
215165 0 0 0 0 0 0 0 0 0 0 0 0 0 0 0 
280701 0 0 0 0 0 0 0 0 0 0 0 0 0 0 0 
92285 0 0 0 0 0 0 0 0 0 0 0 0 0 0 0 
157821 0 0 0 0 0 0 0 0 0 0 0 0 0 0 0 
223357 0 0 0 0 0 0 0 0 0 0 0 0 0 0 0 
288893 0 0 0 0 0 0 0 0 0 0 0 0 0 0 0 
100477 0 0 0 0 0 0 0 0 0 0 0 0 0 0 0 
166013 0 0 0 0 0 0 0 0 0 0 0 0 0 0 0 
231549 0 0 0 0 0 0 0 0 0 0 0 0 0 0 0 
297085 0 0 0 0 0 0 0 0 0 0 0 0 0 0 0 
76925 0 0 0 0 0 0 0 0 0 0 0 0 0 0 0 
142461 0 0 0 0 0 0 0 0 0 0 0 0 0 0 0 
207997 0 0 0 0 0 0 0 0 0 0 0 0 0 0 0 
273533 0 0 0 0 0 0 0 0 0 0 0 0 0 0 0 
85117 0 0 0 0 0 0 0 0 0 0 0 0 0 0 0 
150653 0 0 0 0 0 0 0 0 0 0 0 0 0 0 0 
216189 0 0 0 0 0 0 0 0 0 0 0 0 0 0 0 
281725 0 0 0 0 0 0 0 0 0 0 0 0 0 0 0 
93309 0 0 0 0 0 0 0 0 0 0 0 0 0 0 0 
158845 0 0 0 0 0 0 0 0 0 0 0 0 0 0 0 
224381 0 0 0 0 0 0 0 0 0 0 0 0 0 0 0 
289917 0 0 0 0 0 0 0 0 0 0 0 0 0 0 0 
101501 0 0 0 0 0 0 0 0 0 0 0 0 0 0 0 
167037 0 0 0 0 0 0 0 0 0 0 0 0 0 0 0 
232573 0 0 0 0 0 0 0 0 0 0 0 0 0 0 0 
298109 0 0 0 0 0 0 0 0 0 0 0 0 0 0 0 
77949 0 0 0 0 0 0 0 0 0 0 0 0 0 0 0 
143485 0 0 0 0 0 0 0 0 0 0 0 0 0 0 0 
209021 0 0 0 0 0 0 0 0 0 0 0 0 0 0 0 
274557 0 0 0 0 0 0 0 0 0 0 0 0 0 0 0 
86141 0 0 0 0 0 0 0 0 0 0 0 0 0 0 0 
151677 0 0 0 0 0 0 0 0 0 0 0 0 0 0 0 
217213 0 0 0 0 0 0 0 0 0 0 0 0 0 0 0 
282749 0 0 0 0 0 0 0 0 0 0 0 0 0 0 0 
94333 0 0 0 0 0 0 0 0 0 0 0 0 0 0 0 
159869 0 0 0 0 0 0 0 0 0 0 0 0 0 0 0 
225405 0 0 0 0 0 0 0 0 0 0 0 0 0 0 0 
290941 0 0 0 0 0 0 0 0 0 0 0 0 0 0 0 
102525 0 0 0 0 0 0 0 0 0 0 0 0 0 0 0 
168061 0 0 0 0 0 0 0 0 0 0 0 0 0 0 0 
233597 0 0 0 0 0 0 0 0 0 0 0 0 0 0 0 
299133 0 0 0 0 0 0 0 0 0 0 0 0 0 0 0 
74881 0 0 0 0 0 0 0 0 0 0 0 0 0 0 0 
140417 0 0 0 0 0 0 0 0 0 0 0 0 0 0 0 
205953 0 0 0 0 0 0 0 0 0 0 0 0 0 0 0 
271489 0 0 0 0 0 0 0 0 0 0 0 0 0 0 0 
83073 0 0 0 0 0 0 0 0 0 0 0 0 0 0 0 
148609 0 0 0 0 0 0 0 0 0 0 0 0 0 0 0 
214145 0 0 0 0 0 0 0 0 0 0 0 0 0 0 0 
279681 0 0 0 0 0 0 0 0 0 0 0 0 0 0 0 
91265 0 0 0 0 0 0 0 0 0 0 0 0 0 0 0 
156801 0 0 0 0 0 0 0 0 0 0 0 0 0 0 0 
222337 0 0 0 0 0 0 0 0 0 0 0 0 0 0 0 
287873 0 0 0 0 0 0 0 0 0 0 0 0 0 0 0 
99457 0 0 0 0 0 0 0 0 0 0 0 0 0 0 0 
164993 0 0 0 0 0 0 0 0 0 0 0 0 0 0 0 
230529 0 0 0 0 0 0 0 0 0 0 0 0 0 0 0 
296065 0 0 0 0 0 0 0 0 0 0 0 0 0 0 0 
75905 0 0 0 0 0 0 0 0 0 0 0 0 0 0 0 