ITEM: TIMESTEP
23000
ITEM: NUMBER OF CELLS
26430
ITEM: BOX BOUNDS oo ao pp
-2.5 5
0 5
-0.0005 0.0005
ITEM: CELLS id proc f_avg_n f_avg_nrho f_avg_temp_tra f_avg_temp_rot f_avg_temp_vib f_avg_vel[1] f_avg_vel[2] f_avg_vel[3] f_avg_nrho_CO2 f_avg_nrho_O2 f_avg_nrho_C2 f_avg_nrho_CO f_avg_nrho_O f_avg_nrho_C 
74753 0 21.461 2.04937e+20 299.96 303.022 295.958 5003.11 15.965 3.77356 2.04937e+20 0 0 0 0 0 
140289 0 22.141 2.11431e+20 300.344 300.104 299.301 4999.9 36.6714 0.477394 2.11431e+20 0 0 0 0 0 
205825 0 20.963 2.00182e+20 299.477 298.565 298.364 4997.25 1.70717 1.05158 2.00182e+20 0 0 0 0 0 
271361 0 20.963 2.00182e+20 302.489 299.775 297.878 4997.14 0.598371 -1.28811 2.00182e+20 0 0 0 0 0 
82945 0 22.852 2.18221e+20 301.891 299.563 297.512 5002.93 46.1794 2.5543 2.18221e+20 0 0 0 0 0 
148481 0 23.051 2.20121e+20 301.091 302.868 297.592 5001.79 52.3829 0.622943 2.20121e+20 0 0 0 0 0 
214017 0 20.867 1.99265e+20 300.103 301.31 299.367 4998.12 2.23767 -0.0302959 1.99265e+20 0 0 0 0 0 
279553 0 20.882 1.99408e+20 301.83 300.17 297.206 4998.3 2.09227 1.34861 1.99408e+20 0 0 0 0 0 
91137 0 20.84 1.99007e+20 299.21 302.373 297.871 5002.28 2.88836 -1.4209 1.99007e+20 0 0 0 0 0 
156673 0 20.869 1.99284e+20 303.59 297.079 297.702 5000.64 3.46742 1.50919 1.99284e+20 0 0 0 0 0 
222209 0 21.02 2.00726e+20 299.93 303.76 299.687 4999.36 -2.88831 -1.1175 2.00726e+20 0 0 0 0 0 
287745 0 21.041 2.00927e+20 301.309 298.756 298.848 4998.9 -3.22418 -1.80616 2.00927e+20 0 0 0 0 0 
99329 0 20.799 1.98616e+20 299.738 302.722 298.899 4999.96 0.0647314 -0.345729 1.98616e+20 0 0 0 0 0 
164865 0 20.842 1.99026e+20 300.571 299.631 297.51 5001.23 0.461011 -1.09552 1.99026e+20 0 0 0 0 0 
230401 0 21.085 2.01347e+20 298.059 305.986 300.655 5000.88 -1.93875 -0.971226 2.01347e+20 0 0 0 0 0 
295937 0 20.999 2.00526e+20 301.43 302.283 298.535 4999.69 -4.88827 0.126332 2.00526e+20 0 0 0 0 0 
75777 0 23.341 2.2289e+20 299.224 300.346 297.749 5001.7 53.6256 -0.825702 2.2289e+20 0 0 0 0 0 
141313 0 23.562 2.25001e+20 299.1 304.256 299.626 5001.66 55.8332 -1.32959 2.25001e+20 0 0 0 0 0 
206849 0 20.93 1.99867e+20 301.629 299.906 297.842 4998.21 2.82446 0.818797 1.99867e+20 0 0 0 0 0 
272385 0 21.136 2.01834e+20 302.717 298.168 298.415 4996.31 6.20781 -0.439978 2.01834e+20 0 0 0 0 0 
83969 0 23.554 2.24924e+20 296.642 298.552 297.416 5002.12 54.8586 -1.37091 2.24924e+20 0 0 0 0 0 
149505 0 23.37 2.23167e+20 293.049 301.782 297.818 5001.93 52.9802 -3.0361 2.23167e+20 0 0 0 0 0 
215041 0 21.044 2.00955e+20 304.626 299.653 297.556 5000.2 5.53522 1.61641 2.00955e+20 0 0 0 0 0 
280577 0 21.051 2.01022e+20 301.062 297.433 300.004 4998.53 8.76987 0.376928 2.01022e+20 0 0 0 0 0 
92161 0 20.715 1.97814e+20 299.695 297.929 298.82 5002.91 1.52921 -0.475872 1.97814e+20 0 0 0 0 0 
157697 0 20.833 1.9894e+20 300.682 301.657 299.627 4999.12 -2.68351 1.33839 1.9894e+20 0 0 0 0 0 
223233 0 21.126 2.01738e+20 301.525 303.887 299.909 4999.17 -0.869903 -1.69243 2.01738e+20 0 0 0 0 0 
288769 0 20.971 2.00258e+20 301.449 301.178 298.722 4999.1 -3.88611 1.7916 2.00258e+20 0 0 0 0 0 
100353 0 20.843 1.99036e+20 301.914 297.995 296.994 5002.03 -0.513612 -2.84923 1.99036e+20 0 0 0 0 0 
165889 0 20.763 1.98272e+20 299.892 300.863 297.748 5001.18 -0.986835 -0.949585 1.98272e+20 0 0 0 0 0 
231425 0 21.09 2.01395e+20 302.038 301.691 298.948 4999.21 -1.42236 0.183664 2.01395e+20 0 0 0 0 0 
296961 0 21.034 2.0086e+20 301.053 303.552 299.672 4998.69 -1.38265 0.0358538 2.0086e+20 0 0 0 0 0 
76801 0 20.937 1.99934e+20 301.657 296.4 299.77 4999.53 -1.40266 2.41596 1.99934e+20 0 0 0 0 0 
142337 0 20.756 1.98205e+20 300.235 300.696 298.893 5001.06 -0.500386 -1.96124 1.98205e+20 0 0 0 0 0 
207873 0 21.006 2.00593e+20 298.705 297.195 298.783 5000.3 -1.54859 -0.298851 2.00593e+20 0 0 0 0 0 
273409 0 21.07 2.01204e+20 300.344 297.918 297.79 5000.07 -0.531845 3.70329 2.01204e+20 0 0 0 0 0 
84993 0 20.804 1.98664e+20 300.862 296.937 296.87 5000.18 -1.04867 2.23155 1.98664e+20 0 0 0 0 0 
150529 0 21.063 2.01137e+20 300.853 300.24 301.404 4999.42 0.142412 0.781128 2.01137e+20 0 0 0 0 0 
216065 0 20.896 1.99542e+20 298.239 297.51 298.634 5003.01 -0.431483 2.2282 1.99542e+20 0 0 0 0 0 
281601 0 21.054 2.01051e+20 297.519 298.412 298.067 4999.74 -1.16524 0.481237 2.01051e+20 0 0 0 0 0 
93185 0 21.006 2.00593e+20 299.43 299.279 298.425 5000.55 -0.278742 1.66189 2.00593e+20 0 0 0 0 0 
158721 0 20.92 1.99771e+20 298.375 296.841 298.576 5003.61 0.41868 1.08519 1.99771e+20 0 0 0 0 0 
224257 0 20.973 2.00277e+20 299.268 299.449 297.399 5000.81 2.36832 -0.31347 2.00277e+20 0 0 0 0 0 
289793 0 20.989 2.0043e+20 298.595 298.968 298.4 5003.61 -2.50685 0.281763 2.0043e+20 0 0 0 0 0 
101377 0 21.014 2.00669e+20 299.713 297.635 297.293 5001.58 -0.1557 3.09736 2.00669e+20 0 0 0 0 0 
166913 0 20.828 1.98893e+20 298.285 298.673 298.788 5001.95 2.81632 -0.389212 1.98893e+20 0 0 0 0 0 
232449 0 20.844 1.99046e+20 300.21 298.116 297.991 5001.74 1.60253 0.863283 1.99046e+20 0 0 0 0 0 
297985 0 20.913 1.99704e+20 299.637 301.043 298.371 5000.41 0.9283 -0.850661 1.99704e+20 0 0 0 0 0 
77825 0 20.747 1.98119e+20 300.008 298.633 295.513 5002.13 0.237022 -0.658225 1.98119e+20 0 0 0 0 0 
143361 0 20.732 1.97976e+20 299.099 298.815 297.565 5001.05 0.28495 1.94564 1.97976e+20 0 0 0 0 0 
208897 0 21.009 2.00621e+20 299.591 297.111 296.982 5002.88 -4.478 1.83 2.00621e+20 0 0 0 0 0 
274433 0 20.783 1.98463e+20 297.314 298.996 298.731 5001.91 -2.40668 0.893934 1.98463e+20 0 0 0 0 0 
86017 0 20.994 2.00478e+20 302.652 299.532 300.194 4998.8 -0.305869 1.33657 2.00478e+20 0 0 0 0 0 
151553 0 20.823 1.98845e+20 300.056 299.834 296.253 5000.33 -3.28987 1.20141 1.98845e+20 0 0 0 0 0 
217089 0 20.958 2.00134e+20 299.11 296.611 298.262 5000.57 -1.39523 0.0385907 2.00134e+20 0 0 0 0 0 
282625 0 20.902 1.99599e+20 298.566 297.419 297.914 5002.53 -3.25889 -0.367548 1.99599e+20 0 0 0 0 0 
94209 0 20.882 1.99408e+20 299.289 296.843 298.55 5003.25 0.427066 1.88994 1.99408e+20 0 0 0 0 0 
159745 0 20.945 2.0001e+20 299.205 298.794 298.261 4999.96 3.95384 0.564782 2.0001e+20 0 0 0 0 0 
225281 0 20.888 1.99466e+20 298.358 298.292 299.381 5001.49 0.456096 0.0695275 1.99466e+20 0 0 0 0 0 
290817 0 20.934 1.99905e+20 297.76 300.244 296.54 5003.8 0.748007 1.19162 1.99905e+20 0 0 0 0 0 
102401 0 20.922 1.9979e+20 296.554 299.158 299.141 5002 -0.213101 1.36697 1.9979e+20 0 0 0 0 0 
167937 0 20.803 1.98654e+20 299.024 300.501 296.835 5000.85 2.80418 -0.550909 1.98654e+20 0 0 0 0 0 
233473 0 20.984 2.00382e+20 297.742 303.443 299.023 5001.17 -2.21117 1.89999 2.00382e+20 0 0 0 0 0 
299009 0 20.882 1.99408e+20 300.258 298.263 298.431 5000.66 0.0304806 0.228038 1.99408e+20 0 0 0 0 0 
74757 0 20.834 1.9895e+20 297.676 297.876 296.48 4998.26 -4.61692 -0.318333 1.9895e+20 0 0 0 0 0 
140293 0 20.455 1.95331e+20 296.191 291.151 296.895 5000.77 -1.24343 -0.752743 1.95331e+20 0 0 0 0 0 
205829 0 20.929 1.99857e+20 296.984 299.458 297.664 4999.79 -0.803457 1.06403 1.99857e+20 0 0 0 0 0 
271365 0 21.113 2.01614e+20 296.337 297.411 298.957 4999.78 0.525287 1.8113 2.01614e+20 0 0 0 0 0 
82949 0 20.666 1.97346e+20 298.863 294.386 295.818 5002.87 -2.00562 -1.09261 1.97346e+20 0 0 0 0 0 
148485 0 20.819 1.98807e+20 302.299 292.893 297.135 5000.35 -0.00194366 -1.43998 1.98807e+20 0 0 0 0 0 
214021 0 20.913 1.99704e+20 301.325 300.691 301.262 4999.34 -0.537128 0.793425 1.99704e+20 0 0 0 0 0 
279557 0 21.002 2.00554e+20 298.752 297.594 297.98 5001.9 -0.311545 2.97988 2.00554e+20 0 0 0 0 0 
91141 0 21.284 2.03247e+20 301.619 301.406 297.856 4997.75 4.75391 1.22145 2.03247e+20 0 0 0 0 0 
156677 0 21.195 2.02397e+20 298.609 300.118 298.31 4999.73 6.57973 0.28037 2.02397e+20 0 0 0 0 0 
222213 0 20.863 1.99227e+20 300.139 298.964 297.145 5003.69 4.66096 0.196057 1.99227e+20 0 0 0 0 0 
287749 0 20.666 1.97346e+20 300.419 300.595 298.17 5002.69 3.90132 -2.6211 1.97346e+20 0 0 0 0 0 
99333 0 21.121 2.01691e+20 302.06 301.966 297.791 4998.71 4.90594 1.17334 2.01691e+20 0 0 0 0 0 
164869 0 21.195 2.02397e+20 300.171 300.912 298.95 4998.62 3.80491 -0.90898 2.02397e+20 0 0 0 0 0 
230405 0 20.805 1.98673e+20 301.485 299.729 298.371 5001.62 2.39946 0.397681 1.98673e+20 0 0 0 0 0 
295941 0 20.842 1.99026e+20 301.481 300.757 296.527 5003.56 4.57797 -0.50499 1.99026e+20 0 0 0 0 0 
75781 0 20.493 1.95694e+20 296.573 296.152 296.182 5000.45 -1.83254 0.0311306 1.95694e+20 0 0 0 0 0 
141317 0 20.686 1.97537e+20 299.049 294.817 295.498 5003.84 1.12216 -2.14528 1.97537e+20 0 0 0 0 0 
206853 0 20.893 1.99513e+20 298.985 298.189 300.074 4997.22 0.642651 1.3122 1.99513e+20 0 0 0 0 0 
272389 0 20.98 2.00344e+20 299.654 297.366 298.966 4999.43 -0.386706 4.96033 2.00344e+20 0 0 0 0 0 
83973 0 20.637 1.97069e+20 300.675 292.737 297.182 4998.79 -0.367582 -0.749545 1.97069e+20 0 0 0 0 0 
149509 0 20.654 1.97231e+20 298.126 296.488 296.49 5004.28 -0.229772 -3.38271 1.97231e+20 0 0 0 0 0 
215045 0 20.935 1.99915e+20 299.736 298.952 297.825 4998.97 1.97334 3.21098 1.99915e+20 0 0 0 0 0 
280581 0 20.887 1.99456e+20 298.182 299.236 299.422 4999.2 0.771462 3.74627 1.99456e+20 0 0 0 0 0 
92165 0 21.08 2.01299e+20 299.684 300.45 297.466 4997.59 6.3052 0.529142 2.01299e+20 0 0 0 0 0 
157701 0 20.998 2.00516e+20 300.175 301.694 297.899 4999.74 2.16571 -0.129453 2.00516e+20 0 0 0 0 0 
223237 0 20.779 1.98425e+20 299.629 301.846 297.186 5001.21 3.55199 -2.81628 1.98425e+20 0 0 0 0 0 
288773 0 20.721 1.97871e+20 300.028 300.604 297.562 5003.46 5.55689 0.669273 1.97871e+20 0 0 0 0 0 
100357 0 21.055 2.0106e+20 297.328 300.785 298.612 4996.92 4.83892 -2.01342 2.0106e+20 0 0 0 0 0 
165893 0 21.039 2.00908e+20 301.958 302.231 298.334 4998.72 4.3237 -1.16639 2.00908e+20 0 0 0 0 0 
231429 0 20.785 1.98482e+20 298.435 302.942 298.22 5003.29 1.54395 -3.49099 1.98482e+20 0 0 0 0 0 
296965 0 20.79 1.9853e+20 302.083 301.854 297.252 5001.77 5.61307 -0.439379 1.9853e+20 0 0 0 0 0 
76805 0 21.026 2.00784e+20 300.07 300.563 299.472 5000.99 2.50988 -0.543889 2.00784e+20 0 0 0 0 0 
142341 0 20.824 1.98855e+20 299.657 304.525 298.31 5001.03 2.82043 2.1514 1.98855e+20 0 0 0 0 0 
207877 0 20.777 1.98406e+20 301.005 301.596 298.819 5001.83 -1.16981 -0.178136 1.98406e+20 0 0 0 0 0 
273413 0 20.585 1.96572e+20 300.552 296.814 298.157 5001.59 0.639136 -1.55937 1.96572e+20 0 0 0 0 0 
84997 0 20.817 1.98788e+20 300.556 300.323 297.882 5002.99 1.91854 1.5917 1.98788e+20 0 0 0 0 0 
150533 0 20.882 1.99408e+20 297.486 302.794 299.341 5001.02 3.47316 0.171198 1.99408e+20 0 0 0 0 0 
216069 0 20.743 1.98081e+20 299.595 299.49 299.556 5002.67 -2.05622 -0.303235 1.98081e+20 0 0 0 0 0 
281605 0 20.784 1.98473e+20 301.66 299.223 297.873 4999.02 1.88575 -3.35798 1.98473e+20 0 0 0 0 0 
93189 0 20.703 1.97699e+20 301.883 294.833 299.586 5001.3 -1.60412 1.00311 1.97699e+20 0 0 0 0 0 
158725 0 20.752 1.98167e+20 298.88 299.404 298.387 5001.6 -1.79741 1.64496 1.98167e+20 0 0 0 0 0 
224261 0 20.809 1.98711e+20 301.411 300.653 297.487 5003.02 -0.04424 1.84786 1.98711e+20 0 0 0 0 0 
289797 0 20.693 1.97604e+20 298.431 299.988 298.526 4998.73 1.29948 0.415134 1.97604e+20 0 0 0 0 0 
101381 0 20.758 1.98224e+20 302.202 293.862 299.13 5002.65 -2.15805 3.81892 1.98224e+20 0 0 0 0 0 
166917 0 20.596 1.96677e+20 301.336 297.876 298.155 5002.37 -2.65414 1.04647 1.96677e+20 0 0 0 0 0 
232453 0 20.596 1.96677e+20 300.532 298.368 298.028 5002.25 0.570736 0.495022 1.96677e+20 0 0 0 0 0 
297989 0 20.609 1.96801e+20 299.89 301.154 298.656 5002.83 1.29944 -1.2172 1.96801e+20 0 0 0 0 0 
77829 0 20.885 1.99437e+20 300.807 303.213 298.157 5001.16 0.261936 -0.0196325 1.99437e+20 0 0 0 0 0 
143365 0 20.869 1.99284e+20 299.242 299.872 298.818 5005.16 2.57319 1.49102 1.99284e+20 0 0 0 0 0 
208901 0 20.608 1.96792e+20 300.932 298.073 298.885 5002.72 -1.66249 0.905546 1.96792e+20 0 0 0 0 0 
274437 0 20.8 1.98625e+20 301.076 298.816 299.065 5002.39 0.573727 -2.07213 1.98625e+20 0 0 0 0 0 
86021 0 20.791 1.98539e+20 299.82 303.806 297.827 4999.19 0.731002 1.18482 1.98539e+20 0 0 0 0 0 
151557 0 21.032 2.00841e+20 301.491 301.583 298.466 5004.32 1.91143 0.758566 2.00841e+20 0 0 0 0 0 
217093 0 20.74 1.98052e+20 301.853 296.552 298.867 5000.05 -0.271814 -0.848999 1.98052e+20 0 0 0 0 0 
282629 0 20.937 1.99934e+20 301.373 300.219 297.91 5002.89 -0.071958 0.0482258 1.99934e+20 0 0 0 0 0 
94213 0 20.856 1.9916e+20 297.318 297.262 298.329 5000.75 -1.31578 1.39263 1.9916e+20 0 0 0 0 0 
159749 0 20.638 1.97078e+20 301.56 297.12 298.878 5003.09 -2.23071 2.8396 1.97078e+20 0 0 0 0 0 
225285 0 20.772 1.98358e+20 300.276 299.491 298.759 5001.74 1.46041 0.438056 1.98358e+20 0 0 0 0 0 
290821 0 20.538 1.96123e+20 302.895 297.895 298.026 5001.91 2.80129 1.40307 1.96123e+20 0 0 0 0 0 
102405 0 20.702 1.9769e+20 298.805 298.595 298.711 5001.47 -1.77484 0.91882 1.9769e+20 0 0 0 0 0 
167941 0 20.524 1.9599e+20 298.232 296.616 297.428 5001.46 -0.807256 1.02892 1.9599e+20 0 0 0 0 0 
233477 0 20.563 1.96362e+20 300.537 297.376 297.479 5001.83 0.344818 -0.75891 1.96362e+20 0 0 0 0 0 
299013 0 20.718 1.97842e+20 299.934 297.665 297.908 5002.06 0.0321074 -1.21378 1.97842e+20 0 0 0 0 0 
74761 0 28.143 2.68746e+20 10880.6 3537.81 1129.9 3695.57 3.05722 -6.58366 2.68746e+20 0 0 0 0 0 
140297 0 79.164 7.55961e+20 13774.3 9627.04 5179.13 1312.25 -8.22043 23.9079 7.55961e+20 0 0 0 0 0 
205833 0 27.631 2.63857e+20 10779 3561.35 1198.82 3680.55 1.23692 -2.42418 2.63857e+20 0 0 0 0 0 
271369 0 79.27 7.56973e+20 13728.7 9672.69 5239.39 1278.96 1.20109 0.230369 7.56973e+20 0 0 0 0 0 
82953 0 145.207 1.38662e+21 11816.4 10242.1 8589.05 702.262 2.93595 14.3863 1.38662e+21 0 0 0 0 0 
148489 0 175.46 1.67552e+21 11233.7 10184.7 9610.88 562.792 7.49672 3.16917 1.67552e+21 0 0 0 0 0 
214025 0 144.768 1.38243e+21 11761.5 10154.9 8589.05 685.021 12.707 3.27467 1.38243e+21 0 0 0 0 0 
279561 0 175.599 1.67685e+21 11225.3 10220.8 9632.67 547.503 7.07119 3.2355 1.67685e+21 0 0 0 0 0 
91145 0 27.19 2.59645e+20 10800.8 3478.67 1106.16 3698.54 7.17073 -1.30899 2.59645e+20 0 0 0 0 0 
156681 0 79.082 7.55177e+20 13763.2 9702.46 5250.28 1261.06 4.89403 6.51811 7.55177e+20 0 0 0 0 0 
222217 0 27.603 2.63589e+20 10406.4 3392.38 1047.14 3766.98 8.69916 0.567607 2.63589e+20 0 0 0 0 0 
287753 0 80.866 7.72213e+20 13726.2 9618.61 5200.58 1286.04 9.86197 17.6025 7.72213e+20 0 0 0 0 0 
99337 0 143.952 1.37464e+21 11802.3 10184.8 8595.05 683.603 10.9645 11.0124 1.37464e+21 0 0 0 0 0 
164873 0 175.084 1.67193e+21 11243 10256.4 9636.3 547.157 16.835 3.7656 1.67193e+21 0 0 0 0 0 
230409 0 145.808 1.39236e+21 11805.4 10151.9 8604.44 695.89 18.9581 6.17452 1.39236e+21 0 0 0 0 0 
295945 0 177.561 1.69558e+21 11262.3 10263.6 9643.6 558.133 26.774 -4.10668 1.69558e+21 0 0 0 0 0 
75785 0 187.381 1.78936e+21 11011.5 10307.4 9919.1 504.918 3.18505 5.15617 1.78936e+21 0 0 0 0 0 
141321 0 195.408 1.86601e+21 10923.2 10345 10099.1 450.798 10.8646 18.6488 1.86601e+21 0 0 0 0 0 
206857 0 189.49 1.8095e+21 11012 10365.6 10008.3 485.214 16.5728 8.58952 1.8095e+21 0 0 0 0 0 
272393 0 198.456 1.89512e+21 10929.2 10361 10139.1 438.069 22.1271 10.3095 1.89512e+21 0 0 0 0 0 
83977 0 205.727 1.96455e+21 10830.4 10421.1 10114.4 391.552 14.7652 12.3942 1.96455e+21 0 0 0 0 0 
149513 0 215.442 2.05732e+21 10646.2 10459.3 10191.3 341.356 5.16742 -0.341875 2.05732e+21 0 0 0 0 0 
215049 0 210.628 2.01135e+21 10796.8 10432.8 10173.1 380.241 17.4401 0.0571885 2.01135e+21 0 0 0 0 0 
280585 0 219.699 2.09797e+21 10638 10398.2 10175 337.864 22.6608 3.61393 2.09797e+21 0 0 0 0 0 
92169 0 192.172 1.83511e+21 11027.3 10367.4 10009.6 473.177 29.0633 4.83051 1.83511e+21 0 0 0 0 0 
157705 0 201.574 1.92489e+21 10945.6 10398.1 10147.1 418.979 33.5692 -0.881252 1.92489e+21 0 0 0 0 0 
223241 0 191.593 1.82958e+21 11018.9 10346.6 10042.6 485.246 36.6913 -7.65813 1.82958e+21 0 0 0 0 0 
288777 0 200.889 1.91835e+21 10978.7 10390 10187.6 438.088 41.0578 -3.32873 1.91835e+21 0 0 0 0 0 
100361 0 210.512 2.01024e+21 10815.9 10424.3 10205.6 370.499 25.7203 4.32426 2.01024e+21 0 0 0 0 0 
165897 0 218.285 2.08447e+21 10666.7 10494.2 10223.4 328.249 31.5422 9.10521 2.08447e+21 0 0 0 0 0 
231433 0 210.862 2.01358e+21 10809.4 10467.6 10213.3 377.274 42.1295 2.41771 2.01358e+21 0 0 0 0 0 
296969 0 221.216 2.11246e+21 10682.5 10449.2 10277.6 326.519 42.6537 -1.01469 2.11246e+21 0 0 0 0 0 
76809 0 27.827 2.65728e+20 10447.5 3283.96 1015.63 3756.56 1.56532 -6.44129 2.65728e+20 0 0 0 0 0 
142345 0 79.742 7.6148e+20 13800.5 9689.56 5160.51 1303.2 9.49244 -3.59725 7.6148e+20 0 0 0 0 0 
207881 0 27.885 2.66282e+20 10859.1 3694.61 1109.67 3688.04 -3.12742 1.3715 2.66282e+20 0 0 0 0 0 
273417 0 80.232 7.66159e+20 13753 9732.08 5273.58 1278.99 19.9129 -5.06393 7.66159e+20 0 0 0 0 0 
85001 0 145.509 1.38951e+21 11830.5 10159.6 8608.96 700.76 24.149 -0.243376 1.38951e+21 0 0 0 0 0 
150537 0 175.269 1.6737e+21 11288.8 10230.8 9652.94 556.02 37.6284 -5.98956 1.6737e+21 0 0 0 0 0 
216073 0 145.638 1.39074e+21 11859.8 10253.4 8747.13 682.095 39.4543 1.75048 1.39074e+21 0 0 0 0 0 
281609 0 174.918 1.67034e+21 11300.1 10329.1 9706.35 536.3 52.1553 -10.9343 1.67034e+21 0 0 0 0 0 
93193 0 28.065 2.68001e+20 11023.7 3623.42 1126.17 3649.96 -2.63409 -9.41677 2.68001e+20 0 0 0 0 0 
158729 0 79.187 7.5618e+20 13850.2 9748.95 5271.34 1273.89 33.7852 -9.21906 7.5618e+20 0 0 0 0 0 
224265 0 27.915 2.66569e+20 11111.7 3668.83 1131.33 3641.93 10.9836 4.63653 2.66569e+20 0 0 0 0 0 
289801 0 79.377 7.57995e+20 13780.5 9688.88 5301.59 1275.74 45.1137 4.95269 7.57995e+20 0 0 0 0 0 
101385 0 141.465 1.35089e+21 11919 10288.3 8725.17 687.706 52.5471 1.38857 1.35089e+21 0 0 0 0 0 
166921 0 173.13 1.65327e+21 11350.1 10334.1 9752.89 525.747 62.5821 4.3693 1.65327e+21 0 0 0 0 0 
232457 0 144.449 1.37939e+21 11901.6 10282 8707.95 676.614 67.2608 4.1847 1.37939e+21 0 0 0 0 0 
297993 0 173.453 1.65635e+21 11357.1 10272.2 9741.91 535.545 78.118 5.01154 1.65635e+21 0 0 0 0 0 
77833 0 190.635 1.82043e+21 11091.5 10382 10024.6 479.443 46.556 -21.439 1.82043e+21 0 0 0 0 0 
143369 0 202.057 1.9295e+21 10996.9 10408.8 10205.8 424.762 53.2552 -3.99151 1.9295e+21 0 0 0 0 0 
208905 0 191.21 1.82592e+21 11100.3 10409.2 10034.4 467.736 55.1386 -17.3121 1.82592e+21 0 0 0 0 0 
274441 0 201.585 1.92499e+21 10978.8 10416.5 10188.3 418.318 64.8543 -8.64784 1.92499e+21 0 0 0 0 0 
86025 0 210.124 2.00654e+21 10803.8 10497 10217.4 377.18 54.8631 16.2465 2.00654e+21 0 0 0 0 0 
151561 0 220.983 2.11023e+21 10640.7 10439.9 10289 324.208 56.3084 1.423 2.11023e+21 0 0 0 0 0 
217097 0 212.733 2.03145e+21 10867.3 10542.3 10239.5 363.601 65.698 -0.42711 2.03145e+21 0 0 0 0 0 
282633 0 221.473 2.11491e+21 10678.8 10495.5 10350 317.622 72.4321 1.26255 2.11491e+21 0 0 0 0 0 
94217 0 188.511 1.80015e+21 11127.1 10425.5 10115.6 457.756 67.1533 -2.26944 1.80015e+21 0 0 0 0 0 
159753 0 199.928 1.90917e+21 10994.2 10381.5 10189 403.613 73.3235 -12.263 1.90917e+21 0 0 0 0 0 
225289 0 189.266 1.80736e+21 11169.7 10420.8 10052.6 458.733 77.2448 -8.64674 1.80736e+21 0 0 0 0 0 
290825 0 201.272 1.92201e+21 10976.9 10409.4 10159 401.961 83.1438 1.48121 1.92201e+21 0 0 0 0 0 
102409 0 210.217 2.00742e+21 10817 10497.8 10211.5 350.922 81.8777 2.04322 2.00742e+21 0 0 0 0 0 
167945 0 220.843 2.1089e+21 10714 10580.5 10360.4 301.445 83.101 -5.99479 2.1089e+21 0 0 0 0 0 
233481 0 214.609 2.04936e+21 10772 10442.6 10218.3 343.558 96.0382 -0.931919 2.04936e+21 0 0 0 0 0 
299017 0 223.216 2.13156e+21 10669.1 10493.6 10336.4 295.986 95.6912 -10.2083 2.13156e+21 0 0 0 0 0 
74785 0 20.908 1.99657e+20 299.351 297.341 299.028 5001.14 5.06809 0.758112 1.99657e+20 0 0 0 0 0 
140321 0 20.821 1.98826e+20 302.307 299.631 297.431 4999.26 0.0111197 1.1643 1.98826e+20 0 0 0 0 0 
205857 0 20.997 2.00507e+20 298.551 301.318 298.654 5000.76 -0.142383 0.79058 2.00507e+20 0 0 0 0 0 
271393 0 20.906 1.99638e+20 299.667 299.629 298.239 5001.92 -1.57867 -0.851586 1.99638e+20 0 0 0 0 0 
82977 0 20.918 1.99752e+20 300.69 296.946 299.106 5001.03 2.47237 -0.111411 1.99752e+20 0 0 0 0 0 
148513 0 20.759 1.98234e+20 301.296 297.753 298.331 4999.41 3.70679 -0.186979 1.98234e+20 0 0 0 0 0 
214049 0 20.966 2.00211e+20 300.353 302.696 297.312 5002.8 0.6329 0.893818 2.00211e+20 0 0 0 0 0 
279585 0 20.953 2.00086e+20 300.661 299.48 298.219 5000.09 -1.20021 -2.53565 2.00086e+20 0 0 0 0 0 
91169 0 20.973 2.00277e+20 300.935 295.445 297.49 5001.2 -1.48707 -1.56007 2.00277e+20 0 0 0 0 0 
156705 0 20.809 1.98711e+20 299.952 300.803 296.881 5001.16 -1.147 -0.106691 1.98711e+20 0 0 0 0 0 
222241 0 20.776 1.98396e+20 301.854 301.666 297.197 5001.2 -0.218929 -0.252381 1.98396e+20 0 0 0 0 0 
287777 0 20.927 1.99838e+20 301.681 300.52 296.625 5000.65 -0.207482 -1.16223 1.99838e+20 0 0 0 0 0 
99361 0 20.888 1.99466e+20 300.394 300.179 297.169 4999.58 -2.67195 -2.59036 1.99466e+20 0 0 0 0 0 
164897 0 20.916 1.99733e+20 301.166 296.885 296.316 4999.26 -1.49702 2.35718 1.99733e+20 0 0 0 0 0 
230433 0 20.873 1.99322e+20 299.943 298.433 295.816 4999.98 0.340779 2.47173 1.99322e+20 0 0 0 0 0 
295969 0 20.753 1.98177e+20 299.626 300.374 296.935 5001.11 1.94386 -1.72352 1.98177e+20 0 0 0 0 0 
75809 0 20.91 1.99676e+20 300.099 297.228 296.913 5001.83 -0.818909 -0.0279209 1.99676e+20 0 0 0 0 0 
141345 0 20.89 1.99485e+20 299.501 297.386 299.616 4999.27 2.86132 0.132395 1.99485e+20 0 0 0 0 0 
206881 0 20.998 2.00516e+20 302.786 300.766 297.261 5003.98 2.80167 -0.183394 2.00516e+20 0 0 0 0 0 
272417 0 20.879 1.9938e+20 300.657 300.873 298.58 4999.9 0.664262 -1.9192 1.9938e+20 0 0 0 0 0 
84001 0 20.753 1.98177e+20 298.892 296.76 298.757 5001.13 0.267994 0.165513 1.98177e+20 0 0 0 0 0 
149537 0 20.909 1.99666e+20 300.332 294.245 297.902 5001.16 -0.698894 -0.712596 1.99666e+20 0 0 0 0 0 
215073 0 20.887 1.99456e+20 300.827 300.119 298.479 5001.48 1.82996 -0.535683 1.99456e+20 0 0 0 0 0 
280609 0 20.897 1.99552e+20 299.384 302.763 297.207 5002.22 2.82795 -0.132985 1.99552e+20 0 0 0 0 0 
92193 0 20.768 1.9832e+20 299.67 300.124 297.789 5000.46 -2.01221 0.0722719 1.9832e+20 0 0 0 0 0 
157729 0 21.022 2.00745e+20 302.931 296.065 295.795 5000.95 -2.7766 -1.51449 2.00745e+20 0 0 0 0 0 
223265 0 20.898 1.99561e+20 301.127 299.78 296.497 4999.51 -0.507003 0.86095 1.99561e+20 0 0 0 0 0 
288801 0 20.782 1.98453e+20 300.411 299.515 295.831 5001.53 1.26455 0.67528 1.98453e+20 0 0 0 0 0 
100385 0 20.7 1.9767e+20 302.375 299.225 297.403 4999.41 -3.98143 2.34313 1.9767e+20 0 0 0 0 0 
165921 0 20.927 1.99838e+20 301.738 298.477 297.303 5002.13 -1.76611 0.906131 1.99838e+20 0 0 0 0 0 
231457 0 20.856 1.9916e+20 299.874 301.431 297.129 4999.64 -0.541688 -0.773141 1.9916e+20 0 0 0 0 0 
296993 0 20.857 1.9917e+20 300.856 297.728 294.945 5002.61 -1.41326 1.20592 1.9917e+20 0 0 0 0 0 
76833 0 20.77 1.98339e+20 298.863 302.675 297.641 5000.92 -2.09478 2.2812 1.98339e+20 0 0 0 0 0 
142369 0 20.938 1.99943e+20 299.484 300.436 298.928 5000.78 -1.83077 -0.96288 1.99943e+20 0 0 0 0 0 
207905 0 20.941 1.99972e+20 301.045 301.352 297.688 5001.23 -1.89936 1.88282 1.99972e+20 0 0 0 0 0 
273441 0 20.906 1.99638e+20 298.257 302.368 298.595 5002.31 -3.13392 2.15845 1.99638e+20 0 0 0 0 0 
85025 0 20.75 1.98148e+20 300.446 297.576 297.552 5001.34 0.149144 -0.125797 1.98148e+20 0 0 0 0 0 
150561 0 20.918 1.99752e+20 301.03 302 298.157 5002.32 -0.55026 -0.621404 1.99752e+20 0 0 0 0 0 
216097 0 20.714 1.97804e+20 299.646 301.859 296.192 5001.6 -2.52452 2.03762 1.97804e+20 0 0 0 0 0 
281633 0 20.892 1.99504e+20 299.97 299.598 297.142 4999.13 -1.87401 2.05758 1.99504e+20 0 0 0 0 0 
93217 0 20.944 2e+20 297.992 297.914 298.563 4999.66 0.816215 -0.325639 2e+20 0 0 0 0 0 
158753 0 20.983 2.00373e+20 297.918 300.771 298.57 5003 -0.413285 0.114038 2.00373e+20 0 0 0 0 0 
224289 0 20.755 1.98196e+20 298.377 302.047 297.767 5002.17 -1.42258 0.998781 1.98196e+20 0 0 0 0 0 
289825 0 20.798 1.98606e+20 298.246 303.199 297.698 5001.73 2.15606 2.63214 1.98606e+20 0 0 0 0 0 
101409 0 20.907 1.99647e+20 297.905 298.829 299.371 5000.59 1.13065 2.32405 1.99647e+20 0 0 0 0 0 
166945 0 20.926 1.99829e+20 298.703 301.807 298.529 5002.83 -0.767841 -1.94524 1.99829e+20 0 0 0 0 0 
232481 0 20.621 1.96916e+20 300.167 299 296.981 5001.15 -0.201365 1.01759 1.96916e+20 0 0 0 0 0 
298017 0 20.838 1.98988e+20 300.639 300.876 298.863 5001.81 -2.67922 1.59747 1.98988e+20 0 0 0 0 0 
77857 0 21.099 2.01481e+20 301.697 299.606 300.251 5001.07 -0.143004 -1.13353 2.01481e+20 0 0 0 0 0 
143393 0 20.952 2.00077e+20 300.724 300.204 296.943 5001.55 -0.783898 0.570344 2.00077e+20 0 0 0 0 0 
208929 0 20.683 1.97508e+20 298.924 301.181 299.394 5000.16 -0.651461 3.66438 1.97508e+20 0 0 0 0 0 
274465 0 20.703 1.97699e+20 299.989 300.999 295.737 4999.47 0.474911 -0.41516 1.97699e+20 0 0 0 0 0 
86049 0 20.9 1.9958e+20 298.587 300.994 299.05 5002.01 -0.604759 -0.755602 1.9958e+20 0 0 0 0 0 
151585 0 20.972 2.00268e+20 301.267 300.616 298.432 5002.04 0.500198 -0.220192 2.00268e+20 0 0 0 0 0 
217121 0 20.709 1.97756e+20 300.491 297.671 297.343 5000.91 -2.66061 3.02337 1.97756e+20 0 0 0 0 0 
282657 0 20.601 1.96725e+20 298.279 301.158 297.152 4999.22 -0.5782 2.04126 1.96725e+20 0 0 0 0 0 
94241 0 20.921 1.99781e+20 299.778 298.03 298.318 5003.39 0.766567 1.55771 1.99781e+20 0 0 0 0 0 
159777 0 20.861 1.99208e+20 297.369 301.799 297.825 5002.98 -1.67185 1.00089 1.99208e+20 0 0 0 0 0 
225313 0 20.761 1.98253e+20 300.8 298.697 297.292 5001.62 1.9401 2.01673 1.98253e+20 0 0 0 0 0 
290849 0 20.926 1.99829e+20 300.904 300.962 297.61 5001.82 0.485581 0.15579 1.99829e+20 0 0 0 0 0 
102433 0 20.969 2.00239e+20 296.281 301.544 300.526 5001 2.74168 -1.25197 2.00239e+20 0 0 0 0 0 
167969 0 20.907 1.99647e+20 298.787 301.314 299.416 5003.09 -0.921466 1.51785 1.99647e+20 0 0 0 0 0 
233505 0 20.92 1.99771e+20 301.052 301.439 298.407 5000.74 -0.0313078 2.72631 1.99771e+20 0 0 0 0 0 
299041 0 20.697 1.97642e+20 302.394 298.665 298.502 5000.83 -0.704935 0.855048 1.97642e+20 0 0 0 0 0 
74789 0 20.755 1.98196e+20 297.464 298.197 297.944 5001.28 -0.11269 -1.27546 1.98196e+20 0 0 0 0 0 
140325 0 20.587 1.96591e+20 298.477 299.117 299.411 5003.53 -0.662841 -0.377446 1.96591e+20 0 0 0 0 0 
205861 0 20.901 1.9959e+20 302.652 300.198 298.506 4999.92 -1.799 1.04015 1.9959e+20 0 0 0 0 0 
271397 0 20.855 1.99151e+20 302.954 299.68 298.253 4999 0.112951 0.82976 1.99151e+20 0 0 0 0 0 
82981 0 20.682 1.97499e+20 298.898 299.546 298.789 5001.41 -0.356412 -0.480018 1.97499e+20 0 0 0 0 0 
148517 0 20.595 1.96668e+20 298.175 299.778 298.558 5002.2 -2.24331 0.507852 1.96668e+20 0 0 0 0 0 
214053 0 20.747 1.98119e+20 299.666 301.285 298.442 5002.13 0.568116 -2.88645 1.98119e+20 0 0 0 0 0 
279589 0 20.758 1.98224e+20 301.05 299.18 297.881 4998.71 -0.680889 1.16909 1.98224e+20 0 0 0 0 0 
91173 0 20.69 1.97575e+20 302.389 297.57 298.22 4999.69 1.74315 0.338688 1.97575e+20 0 0 0 0 0 
156709 0 20.698 1.97651e+20 301.865 295.933 296.69 5003.33 3.57429 1.28985 1.97651e+20 0 0 0 0 0 
222245 0 20.568 1.9641e+20 297.155 299.447 296.66 5002.1 -1.46512 3.8126 1.9641e+20 0 0 0 0 0 
287781 0 20.578 1.96505e+20 297.494 298.257 297.814 4999.97 -0.828166 2.52048 1.96505e+20 0 0 0 0 0 
99365 0 20.799 1.98616e+20 301.811 297.519 296.913 4998.85 -2.20796 -2.31804 1.98616e+20 0 0 0 0 0 
164901 0 20.668 1.97365e+20 305.558 298.162 297.52 5001.25 4.05225 0.0168619 1.97365e+20 0 0 0 0 0 
230437 0 20.5 1.95761e+20 297.507 296.846 297.561 5001.26 -2.42494 3.23468 1.95761e+20 0 0 0 0 0 
295973 0 20.558 1.96314e+20 298.735 298.769 297.51 5001.6 0.22493 2.56684 1.96314e+20 0 0 0 0 0 
75813 0 20.749 1.98138e+20 298.518 296.734 298.235 5002.53 1.32504 -0.757549 1.98138e+20 0 0 0 0 0 
141349 0 20.593 1.96649e+20 300.362 299.432 298.147 5002.25 -0.101666 0.462095 1.96649e+20 0 0 0 0 0 
206885 0 20.711 1.97775e+20 302.485 301.281 299.059 4999.53 -1.92424 -1.52388 1.97775e+20 0 0 0 0 0 
272421 0 20.833 1.9894e+20 301.037 299.453 298.655 5001.5 -0.106984 -1.58262 1.9894e+20 0 0 0 0 0 
84005 0 20.524 1.9599e+20 300.297 296.788 296.969 5003.34 0.787867 1.09934 1.9599e+20 0 0 0 0 0 
149541 0 20.854 1.99141e+20 298.56 299.109 297.589 5000.39 -0.446287 -1.95336 1.99141e+20 0 0 0 0 0 
215077 0 20.561 1.96343e+20 301.217 302.209 298.55 4999.52 -2.57364 -3.22632 1.96343e+20 0 0 0 0 0 
280613 0 20.575 1.96477e+20 300.595 301.287 299.176 5001.76 -1.01903 0.151243 1.96477e+20 0 0 0 0 0 
92197 0 20.651 1.97203e+20 298.739 297.791 297.688 5002.76 3.62886 2.78805 1.97203e+20 0 0 0 0 0 
157733 0 20.832 1.98931e+20 304.686 298.188 297.791 4999.94 0.86937 -1.04595 1.98931e+20 0 0 0 0 0 
223269 0 20.727 1.97928e+20 298.592 294.144 296.611 5002.61 -2.33917 2.81069 1.97928e+20 0 0 0 0 0 
288805 0 20.487 1.95636e+20 298.561 296.691 297.28 5002.11 -2.68484 4.05721 1.95636e+20 0 0 0 0 0 
100389 0 20.84 1.99007e+20 300.199 297.65 297.838 4999.58 2.84825 2.25611 1.99007e+20 0 0 0 0 0 
165925 0 20.922 1.9979e+20 302.336 297.155 297.263 5000.6 3.84181 1.32596 1.9979e+20 0 0 0 0 0 
231461 0 20.662 1.97308e+20 298.007 294.209 295.932 5000.7 2.44805 2.26658 1.97308e+20 0 0 0 0 0 
296997 0 20.429 1.95083e+20 298.722 296.693 297.235 5001.66 -4.47933 0.975193 1.95083e+20 0 0 0 0 0 
76837 0 20.599 1.96706e+20 300.482 298.644 297.485 4999.81 -1.63667 2.23293 1.96706e+20 0 0 0 0 0 
142373 0 20.643 1.97126e+20 299.486 298.066 297.601 5003.1 0.533451 0.365303 1.97126e+20 0 0 0 0 0 
207909 0 20.679 1.9747e+20 301.158 300.467 299.121 5001.05 1.8037 0.212083 1.9747e+20 0 0 0 0 0 
273445 0 20.789 1.9852e+20 302.113 301.692 298.441 4997.04 -0.934721 -3.26067 1.9852e+20 0 0 0 0 0 
85029 0 20.475 1.95522e+20 298.329 296.801 300.385 5000.33 -1.36284 1.20701 1.95522e+20 0 0 0 0 0 
150565 0 20.531 1.96057e+20 297.909 302.135 297.847 5000.06 -1.12581 1.6098 1.96057e+20 0 0 0 0 0 
216101 0 20.759 1.98234e+20 300.646 300.087 299.627 4998.08 1.00195 1.61075 1.98234e+20 0 0 0 0 0 
281637 0 20.787 1.98501e+20 301.626 299.99 297.735 5000.32 0.937695 0.0432396 1.98501e+20 0 0 0 0 0 
93221 0 20.651 1.97203e+20 300.74 302.262 297.431 5000.86 2.23389 0.426421 1.97203e+20 0 0 0 0 0 
158757 0 20.787 1.98501e+20 299.751 304.323 297.246 5001.15 1.36127 1.89659 1.98501e+20 0 0 0 0 0 
224293 0 20.598 1.96696e+20 299.319 299.528 295.928 5002.86 -0.446595 -1.64642 1.96696e+20 0 0 0 0 0 