ITEM: TIMESTEP
23000
ITEM: NUMBER OF SURFS
134
ITEM: BOX BOUNDS oo ao pp
-2.5 5
0 5
-0.0005 0.0005
ITEM: SURFS id f_avg_pressure[1] f_avg_pressure[2] f_avg_pressure[3] f_avg_pressure[4] f_avg_shear[1] f_avg_shear[2] f_avg_shear[3] f_avg_heat_flux[*] 
1 342.036 341.813 12.3728 0 0.0274861 -0.759337 0.72722 163924 
5 345.14 345.139 -1.14637 0 0.0140174 4.22022 -0.805152 213116 
9 344.045 343.729 -14.7385 0 0.1938 4.51976 -0.242706 164807 
13 338.287 337.14 -27.8315 0 0.635697 7.7006 1.42392 186253 
17 341.781 339.246 -41.5489 0 1.31373 10.7266 -1.36853 151865 
21 336.317 331.947 -54.0387 0 2.32974 14.3111 1.71635 163211 
25 322.536 316.049 -64.3614 0 3.1613 15.5237 -3.0009 146106 
29 313.576 304.557 -74.6635 0 5.12186 20.8924 -0.110214 175666 
33 313.698 301.488 -86.6693 0 6.31239 21.9583 -2.6256 145519 
37 303.747 288.382 -95.3853 0 8.25133 24.9465 -2.04443 154361 
41 286.517 268.257 -100.649 0 9.81497 26.1596 -1.27501 143815 
45 260.611 240.196 -101.115 0 13.5707 32.2369 0.415679 151534 
49 232.13 210.221 -98.4466 0 17.491 37.3498 1.91803 137361 
53 73.8413 34.897 -65.0749 0 24.0784 12.9123 -1.046 52195 
57 11.6398 -3.23837 -11.1802 0 5.37142 -1.55584 -0.139949 6826.82 
61 4.33619 -2.32944 -3.65736 0 2.61163 -1.66339 0.0162857 4012.99 
65 4.81211 -2.58511 -4.05877 0 2.17749 -1.38688 0.0420871 3467.52 
69 2.76804 -1.48699 -2.33472 0 1.6423 -1.04599 0.657653 3406.86 
73 5.27677 -2.83473 -4.45069 0 2.04884 -1.30494 0.038799 3652.64 
77 3.89491 -2.09234 -3.28518 0 1.0749 -0.684608 0.424726 1704.35 
81 4.52047 -2.42843 -3.81279 0 1.05166 -0.669824 0.265906 2562.47 
85 4.66317 -2.5051 -3.93314 0 1.11401 -0.709534 0.326646 2021.04 
89 3.74541 -2.01208 -3.15905 0 0.993168 -0.632572 0.134154 1676.85 
93 4.49004 -2.41215 -3.78709 0 0.953165 -0.607109 0.122354 2087.51 
97 3.8074 -2.04541 -3.21133 0 0.799237 -0.509062 -0.104279 1691.24 
101 4.51844 -2.42733 -3.81108 0 1.16129 -0.739643 -0.0844388 2430.66 
105 4.18253 -2.24688 -3.52777 0 0.440495 -0.280557 -0.137275 1694.94 
109 3.90723 -2.09898 -3.29556 0 0.818732 -0.52146 -0.301438 1292.78 
113 4.84245 -2.6014 -4.08437 0 0.455154 -0.289895 0.0874684 1748.98 
117 2.53452 -2.53452 0 0 0 -0.412781 0.22796 933.466 
121 4.67831 -4.67831 0 0 0 0.293996 -0.0122909 1403.58 
125 5.92225 -5.92225 0 0 0 -0.0376045 0.118025 1340.2 
129 6.38474 -6.38474 0 0 0 0.264928 0.0316691 1838.86 
133 7.31342 -7.31342 0 0 0 0.159366 0.110484 1827.45 
2 345.396 345.277 9.08116 0 -0.0774334 2.94412 1.7166 163334 
6 344.117 344.087 -4.5435 0 0.0528252 4.00054 2.61824 185144 
10 345.18 344.701 -18.1906 0 0.327404 6.20412 0.922058 171144 
14 339.094 337.653 -31.229 0 1.0664 11.5301 -2.33785 194190 
18 338.515 335.581 -44.4698 0 1.85263 13.9804 -1.75748 174861 
22 333.369 328.492 -56.82 0 2.7672 15.9979 -0.516661 164630 
26 323.476 316.317 -67.6753 0 4.34298 20.2993 1.39642 174422 
30 318.083 308.173 -78.7819 0 5.42178 21.2085 0.180437 172428 
34 303.629 290.969 -86.7622 0 7.6291 25.5852 0.944763 181302 
38 287.569 272.117 -92.9967 0 8.93569 26.1467 1.90689 167366 
42 278.087 259.387 -100.254 0 11.9589 30.9411 -0.416844 169060 
46 258.998 237.704 -102.844 0 13.1471 30.3871 -0.0736612 138212 
50 202.772 178.15 -96.8454 0 20.9535 38.5445 -0.34823 133966 
54 49.9438 14.6967 -47.7324 0 19.8263 6.10446 -0.0562085 36311.6 
58 8.13865 -3.72573 -7.23578 0 3.51472 -1.80974 -0.146865 5291.11 
62 4.74382 -2.54841 -4.00117 0 2.34664 -1.49461 -0.231373 4701.44 
66 5.04548 -2.71041 -4.25565 0 2.30078 -1.46536 0.312619 3921.69 
70 3.62242 -1.946 -3.05533 0 1.90767 -1.21503 0.281729 3375.13 
74 5.10014 -2.73984 -4.30171 0 2.25348 -1.43528 -0.0553389 3667 
78 4.2296 -2.27224 -3.56742 0 1.46249 -0.931522 -0.215607 2930.55 
82 4.81527 -2.58687 -4.0614 0 1.20885 -0.769969 0.22987 2325.38 
86 3.28695 -1.76579 -2.77237 0 0.607987 -0.387242 0.356709 1536.29 
90 4.05778 -2.17987 -3.42253 0 1.04991 -0.668709 -0.0544914 2015.11 
94 4.24978 -2.283 -3.58448 0 0.822145 -0.523635 0.00874936 2002.04 
98 3.86573 -2.07669 -3.26056 0 1.15936 -0.738409 0.0899066 2428.03 
102 4.07479 -2.189 -3.43689 0 0.757656 -0.482561 -0.108704 1586.45 
106 3.99857 -2.14805 -3.3726 0 0.545674 -0.347547 0.263616 1523.31 
110 4.39471 -2.36085 -3.70672 0 0.792732 -0.5049 0.1938 2114.76 
114 4.47529 -2.40417 -3.77467 0 0.473144 -0.301355 0.0294994 1631.59 
118 3.46632 -3.46632 0 0 0 -0.124783 -0.0377887 1180.31 
122 4.71072 -4.71072 0 0 0 -0.0487732 -0.0487874 1128.3 
126 5.93129 -5.93129 0 0 0 0.0287574 -0.109111 1372.89 
130 6.75604 -6.75604 0 0 0 0.220752 0.16205 1788.2 
134 7.15638 -7.15638 0 0 0 -0.121056 0.292491 2130.71 
3 347.277 347.23 5.70305 0 -0.0108055 0.657892 0.607359 184396 
7 345.053 344.961 -7.96703 0 0.0870195 3.76782 -0.114227 164436 
11 340.115 339.448 -21.2791 0 0.533182 8.50544 -0.426199 177212 
15 339.347 337.579 -34.5927 0 1.43687 14.022 -0.86135 205616 
19 331.899 328.575 -46.8496 0 2.25213 15.7951 0.269597 186218 
23 328.02 322.654 -59.0912 0 3.59976 19.6557 -0.0141984 184834 
27 321.589 313.791 -70.3885 0 5.09481 22.7126 1.03463 193267 
31 313.642 303.087 -80.6822 0 5.24153 19.6901 0.509653 161932 
35 307.354 293.656 -90.7337 0 7.23802 23.4256 -0.934724 153762 
39 294.813 278.015 -98.0929 0 9.28184 26.3066 1.78856 149739 
43 276.414 256.829 -102.194 0 11.3481 28.5197 -0.502011 143534 
47 247.462 226.134 -100.502 0 15.2511 34.3159 1.6771 150050 
51 150.813 116.174 -96.1675 0 25.775 31.1371 0.478741 103574 
55 34.955 3.66881 -34.7619 0 13.745 1.45066 -0.0673535 22150.2 
59 4.67069 -2.50913 -3.93949 0 2.10726 -1.34215 -0.255994 2953.31 
63 4.48039 -2.40687 -3.77901 0 1.84621 -1.17586 0.319138 3066.73 
67 6.57399 -3.5316 -5.54483 0 3.36634 -2.14408 0.0797675 5269.53 
71 4.28268 -2.30073 -3.6122 0 2.50891 -1.59801 0.155717 4379.46 
75 4.31004 -2.3154 -3.63529 0 1.95714 -1.24655 -0.158918 3761.81 
79 3.50763 -1.88433 -2.95851 0 1.15141 -0.733355 0.170494 2273.42 
83 4.10247 -2.20384 -3.46025 0 1.19562 -0.761495 0.0827876 2108.91 
87 3.98769 -2.14222 -3.36342 0 1.31041 -0.834623 -0.239968 2151.98 
91 4.51083 -2.42326 -3.80466 0 0.989699 -0.630359 -0.136149 1987.83 
95 4.46993 -2.40127 -3.77017 0 1.11142 -0.707878 -0.0580846 2613.64 
99 4.52242 -2.42947 -3.81444 0 1.0467 -0.666655 -0.080782 2346.88 
103 4.22049 -2.26727 -3.55978 0 0.829099 -0.528064 0.0116093 1431.44 
107 4.11285 -2.2095 -3.46896 0 0.530639 -0.337983 -0.0794091 1523 
111 4.85856 -2.61011 -4.09791 0 0.749183 -0.477183 -0.012046 1850.33 
115 5.06711 -2.72209 -4.27385 0 0.553186 -0.352334 0.132233 1801.64 
119 4.25353 -4.25353 0 0 0 0.23136 -0.0552305 1230.59 
123 5.14607 -5.14607 0 0 0 0.0476268 0.160236 1396.28 
127 6.08591 -6.08591 0 0 0 -0.0613909 -0.0469794 1801.89 
131 6.31749 -6.31749 0 0 -2.0076e-15 -0.129672 -0.0165406 1759.72 
4 344.183 344.176 2.25175 0 -0.0234319 3.58153 -2.95427 209921 
8 343.077 342.89 -11.3054 0 0.162635 4.93267 0.25054 163070 
12 338.133 337.245 -24.4836 0 0.745573 10.2698 -0.952777 181877 
16 336.099 333.993 -37.5633 0 1.35936 12.0867 -0.966489 183794 
20 330.17 326.389 -49.8267 0 2.84858 18.6596 -0.470865 206005 
24 326.111 320.18 -61.9124 0 3.84595 19.8894 1.24471 192894 
28 316.659 308.283 -72.3485 0 4.16191 17.7342 1.8557 146961 
32 305.791 294.709 -81.5751 0 7.00585 25.3103 0.66302 187862 
36 299.305 285.08 -91.1779 0 8.81595 27.5642 0.764562 174033 
40 287.182 269.864 -98.2207 0 10.9935 30.205 0.659087 175520 
44 271.103 250.89 -102.717 0 12.6464 30.8893 0.247693 155676 
48 240.171 218.5 -99.7008 0 16.9292 37.1013 -0.572346 143388 
52 108.003 68.3961 -83.5861 0 25.1351 20.5674 -0.528345 73378.1 
56 19.849 -1.75273 -19.7715 0 8.39827 -0.744504 0.294962 11278 
60 4.02799 -2.16388 -3.39739 0 2.34702 -1.49487 0.413121 3239.35 
64 4.46876 -2.40073 -3.76912 0 1.79513 -1.1434 -0.559722 4591.65 
68 4.24502 -2.28051 -3.58042 0 3.09686 -1.97251 0.143486 4232.85 
72 3.77292 -2.02684 -3.18227 0 1.80793 -1.1515 -0.212327 3499.19 
76 3.95466 -2.12448 -3.33556 0 2.09 -1.33116 -0.0943032 3442.33 
80 4.31122 -2.31598 -3.63632 0 1.25386 -0.798586 -0.528037 2050.46 
84 4.21459 -2.26412 -3.5548 0 1.09633 -0.698276 -0.0449669 2036.83 
88 3.891 -2.09028 -3.28186 0 0.640471 -0.407929 0.335146 1509.28 
92 3.78555 -2.03359 -3.19295 0 0.489735 -0.311913 0.339279 1694.03 
96 4.50615 -2.42073 -3.80073 0 0.88242 -0.562024 -0.0895016 1943.8 
100 4.61642 -2.48003 -3.89369 0 0.923296 -0.58808 -0.0546744 1950.4 
104 4.21038 -2.2619 -3.55121 0 0.728003 -0.463692 0.100034 1427.86 
108 4.79426 -2.57551 -4.04373 0 0.864062 -0.550333 -0.0314961 1534.22 
112 4.35088 -2.33732 -3.66976 0 0.635596 -0.40482 -0.0920157 1424.24 
116 5.0761 -2.72692 -4.28143 0 0.813528 -0.518152 0.0292037 1629.87 
120 4.45175 -4.45175 0 0 0 0.13468 0.198617 1208.47 
124 6.2701 -6.2701 0 0 0 0.328455 0.363045 1029 
128 6.1062 -6.1062 0 0 0 0.219913 0.143503 1518.62 
132 7.14459 -7.14459 0 0 0 0.123715 0.0552438 1914.28 
