ITEM: TIMESTEP
18000
ITEM: NUMBER OF SURFS
134
ITEM: BOX BOUNDS oo ao pp
-2.5 5
0 5
-0.0005 0.0005
ITEM: SURFS id f_avg_pressure[1] f_avg_pressure[2] f_avg_pressure[3] f_avg_pressure[4] f_avg_shear[1] f_avg_shear[2] f_avg_shear[3] f_avg_heat_flux[*] 
1 344.943 344.717 12.4779 0 0.041058 -1.13428 0.546039 182437 
5 341.559 341.557 -1.13448 0 0.0098581 2.96797 0.0187125 233603 
9 334.312 334.005 -14.3216 0 0.137246 3.20083 0.608814 175190 
13 329.542 328.425 -27.112 0 0.579226 7.01653 1.75915 201955 
17 337.211 334.71 -40.9933 0 1.43617 11.7263 -1.14986 170061 
21 335.223 330.867 -53.8628 0 2.45322 15.0696 3.94673 182348 
25 320.396 313.952 -63.9344 0 3.06493 15.0504 -0.486762 163736 
29 306.973 298.145 -73.0914 0 5.26295 21.4679 1.26824 190992 
33 308.199 296.203 -85.15 0 7.27715 25.3143 -3.00192 160109 
37 295.734 280.773 -92.8689 0 8.62392 26.073 -1.39791 169038 
41 286.495 268.236 -100.641 0 10.7294 28.5967 -1.30455 162180 
45 257.986 237.776 -100.096 0 14.0136 33.2889 2.67418 166504 
49 233.888 211.813 -99.1922 0 17.8438 38.1033 2.47949 148877 
53 72.0239 34.0381 -63.4733 0 24.6094 13.197 -0.615115 56839.8 
57 10.8201 -3.01031 -10.3929 0 5.13465 -1.48726 -0.139687 7156.74 
61 4.74713 -2.5502 -4.00396 0 3.063 -1.95088 -0.217043 4885.45 
65 3.68281 -1.97844 -3.10626 0 1.4827 -0.944358 -0.530984 3105.42 
69 1.60491 -0.862155 -1.35367 0 0.996053 -0.634389 0.230437 1885.58 
73 5.14612 -2.76454 -4.34049 0 1.89432 -1.20653 0.426706 4173.55 
77 3.23082 -1.73559 -2.72505 0 0.435102 -0.277118 0.612159 911.559 
81 2.94293 -1.58096 -2.48221 0 0.883058 -0.562436 0.207369 1945.42 
85 3.87714 -2.08284 -3.27017 0 0.945813 -0.602408 0.416666 1587.16 
89 2.52427 -1.35607 -2.12909 0 0.571691 -0.364124 0.462624 960.026 
93 3.60051 -1.93427 -3.03682 0 0.845448 -0.5385 0.137329 1695.06 
97 2.81538 -1.51247 -2.37461 0 0.6107 -0.388976 -0.0474362 1609.33 
101 3.30317 -1.77448 -2.78607 0 0.995124 -0.633808 0.132825 2098.16 
105 3.33189 -1.78991 -2.81029 0 0.354542 -0.225812 -0.172184 1711.97 
109 2.86886 -1.54116 -2.41974 0 0.643991 -0.410165 -0.190399 1515.87 
113 4.02192 -2.1606 -3.39229 0 0.325603 -0.207382 -0.0844622 1960.38 
117 1.87306 -1.87306 0 0 0 -0.310019 0.452377 893.167 
121 3.83176 -3.83176 0 0 0 0.262209 -0.03054 1441.1 
125 4.8533 -4.8533 0 0 0 -0.0236834 0.0674659 1348.32 
129 5.27819 -5.27819 0 0 0 0.213186 0.0383254 1224.43 
133 5.74242 -5.74242 0 0 0 -0.0423616 0.21948 1749.8 
2 339.587 339.469 8.92841 0 -0.0612646 2.32936 2.1073 179028 
6 336.294 336.265 -4.44022 0 0.0526421 3.98667 3.10852 199574 
10 337.587 337.118 -17.7904 0 0.337824 6.40156 2.04168 185368 
14 330.79 329.385 -30.4643 0 1.13387 12.2595 -0.848902 211921 
18 333.264 330.375 -43.78 0 1.99492 15.0542 -2.12123 196970 
22 327.9 323.102 -55.8878 0 3.19506 18.4715 -1.40649 180598 
26 320.246 313.159 -66.9996 0 4.51537 21.1051 0.866901 190460 
30 310.706 301.026 -76.9548 0 5.4893 21.4726 -0.861189 191171 
34 299.589 287.098 -85.6078 0 7.71204 25.8634 -1.58769 203380 
38 284.197 268.926 -91.9062 0 8.59471 25.1489 3.4337 184830 
42 277.154 258.517 -99.918 0 13.2821 34.3647 -2.99767 190219 
46 257.955 236.746 -102.429 0 13.7249 31.7226 -0.264136 154932 
50 202.683 178.072 -96.8028 0 21.6024 39.7382 -0.440183 149810 
54 45.764 13.4667 -43.7377 0 19.2155 5.9164 0.00523879 38114.6 
58 7.96471 -3.64611 -7.08114 0 3.88097 -1.99833 0.193709 6282.07 
62 4.35223 -2.33805 -3.67089 0 2.6285 -1.67413 -0.154189 4866.73 
66 4.99752 -2.68465 -4.21519 0 2.13329 -1.35869 -0.266432 4292.76 
70 3.0076 -1.61571 -2.53676 0 1.81386 -1.15528 0.151625 3244.42 
74 4.2566 -2.28668 -3.59023 0 2.23423 -1.42302 -0.309093 3403.61 
78 3.14075 -1.68728 -2.64904 0 1.20475 -0.767357 -0.451805 3189.38 
82 3.91596 -2.10374 -3.30288 0 1.59172 -1.01383 -0.437407 1863.86 
86 2.64139 -1.41899 -2.22787 0 0.786025 -0.500639 0.253561 1322.07 
90 2.77656 -1.49159 -2.34189 0 0.740352 -0.471544 -0.0227239 1554.36 
94 3.19262 -1.71509 -2.69282 0 0.835196 -0.531948 -0.0799665 1918.63 
98 3.11708 -1.67451 -2.62911 0 1.37877 -0.878155 0.569063 2403.28 
102 3.43611 -1.8459 -2.89819 0 0.639712 -0.40744 -0.0941591 1629.62 
106 2.82024 -1.51505 -2.37874 0 0.557925 -0.35535 0.132242 1573.29 
110 4.23591 -2.27555 -3.57279 0 0.731345 -0.465802 0.123983 2437.86 
114 4.31641 -2.31882 -3.64067 0 0.526249 -0.335179 0.123283 1829.71 
118 2.47165 -2.47165 0 0 0 -0.0797161 -0.0481362 795.88 
122 3.86835 -3.86835 0 0 0 0.064116 -0.202347 1057.37 
126 5.26927 -5.26927 0 0 0 -0.106827 -0.268037 1716.9 
130 5.48853 -5.48853 0 0 0 -0.193012 0.0749018 1682.89 
134 6.15351 -6.15351 0 0 0 -0.205282 0.310303 2784.31 
3 339.129 339.083 5.56924 0 0.0209552 -1.27586 0.119493 201707 
7 337.007 336.917 -7.78125 0 0.142146 6.15472 -0.250043 179776 
11 333.742 333.088 -20.8804 0 0.528581 8.43204 -1.2567 190419 
15 333.747 332.008 -34.0218 0 1.66299 16.2286 -2.96863 227588 
19 326.968 323.694 -46.1536 0 2.34322 16.4339 -0.671688 206762 
23 325.163 319.843 -58.5764 0 4.08167 22.287 -1.45741 205913 
27 320.689 312.913 -70.1917 0 5.40731 24.1057 2.52778 214805 
31 306.034 295.735 -78.7252 0 5.06599 19.0307 1.4814 177502 
35 303.028 289.523 -89.4567 0 8.22271 26.6125 -1.79192 170001 
39 291.676 275.057 -97.049 0 9.72295 27.5568 0.232123 167586 
43 274.181 254.754 -101.368 0 11.6923 29.3845 -0.383022 159616 
47 244.999 223.883 -99.5012 0 16.0798 36.1806 1.80422 164333 
51 150.423 115.873 -95.9188 0 26.7868 32.3594 0.326622 113400 
55 34.0865 3.57765 -33.8982 0 14.0349 1.48126 -0.0493418 24400.8 
59 4.45965 -2.39576 -3.76149 0 2.21434 -1.41035 -0.1506 3441.7 
63 2.63115 -1.41345 -2.21926 0 1.00718 -0.64148 -0.165968 594.201 
67 4.81082 -2.58441 -4.05769 0 2.42676 -1.54565 0.663813 4382.95 
71 3.68233 -1.97821 -3.10584 0 2.32053 -1.47802 0.667442 3980.72 
75 4.05339 -2.17753 -3.41882 0 2.26794 -1.44451 -0.315839 4023.31 
79 1.82387 -0.979797 -1.53834 0 0.405883 -0.258514 0.271532 1213.44 
83 2.71207 -1.45692 -2.28751 0 0.963846 -0.613875 -0.226249 1802.59 
87 3.21275 -1.72591 -2.70979 0 1.2524 -0.797675 -0.256299 1965.61 
91 3.71067 -1.99341 -3.12976 0 0.807992 -0.514627 0.183999 1854.35 
95 3.28884 -1.76678 -2.77397 0 0.885425 -0.563939 -0.149917 2594.85 
99 3.64129 -1.95612 -3.07125 0 0.880506 -0.560806 -0.16051 2209.37 
103 3.49408 -1.87704 -2.94709 0 0.561029 -0.357327 -0.0562713 1512.07 
107 3.58904 -1.9281 -3.02715 0 0.428598 -0.272989 -0.296827 1873.28 
111 4.4265 -2.37801 -3.7335 0 0.809632 -0.515685 0.234041 2134.53 
115 4.63756 -2.49134 -3.91155 0 0.561393 -0.357561 0.0370841 2212.69 
119 3.55192 -3.55192 0 0 0 0.433412 -0.0850844 1229 
123 4.00949 -4.00949 0 0 0 0.0909047 -0.165997 1505.1 
127 5.06231 -5.06231 0 0 0 -0.0577227 0.0542412 2055.59 
131 5.0843 -5.0843 0 0 -1.58485e-15 0.165301 0.0920273 1926.6 
4 336.853 336.846 2.20379 0 -0.0398998 6.09861 -1.94828 225278 
8 334.423 334.241 -11.0202 0 0.174207 5.28366 0.396554 176663 
12 329.888 329.022 -23.8866 0 0.816693 11.2494 -3.23126 195781 
16 331.455 329.378 -37.0443 0 1.18672 10.5517 -2.7303 204830 
20 324.459 320.743 -48.9649 0 2.72105 17.8242 -0.0986672 229220 
24 319.849 314.032 -60.7234 0 4.28415 22.1555 0.567631 211213 
28 311.825 303.577 -71.244 0 4.29822 18.3151 -0.138154 162900 
32 297.585 286.801 -79.3861 0 7.70311 27.8293 -0.683841 206765 
36 294.459 280.464 -89.7015 0 9.37288 29.3056 2.21606 192482 
40 287.695 270.345 -98.3959 0 11.6516 32.0131 1.07208 197859 
44 267.56 247.612 -101.375 0 12.9428 31.6132 1.93384 170389 
48 240.719 218.997 -99.928 0 17.8076 39.0262 -0.58052 156985 
52 107.761 68.2427 -83.3986 0 25.1446 20.5751 0.0135569 82190.4 
56 17.9163 -1.58207 -17.8463 0 7.95322 -0.70505 0.141539 12032.4 
60 3.50676 -1.88387 -2.95777 0 1.49745 -0.95376 0.548033 2793.19 
64 2.97428 -1.59786 -2.50862 0 0.742193 -0.472737 -1.10665 2333.95 
68 3.41578 -1.83503 -2.88101 0 2.44998 -1.56049 -0.553966 3638.47 
72 4.26974 -2.29373 -3.60131 0 1.85057 -1.17866 -0.296893 3983.4 
76 3.55832 -1.91156 -3.00126 0 1.96548 -1.25186 0.0670965 3645.55 
80 3.3949 -1.82374 -2.86345 0 1.0217 -0.650721 -0.316772 2468.03 
84 3.12487 -1.67871 -2.63566 0 0.893693 -0.56921 0.0865716 2145.57 
88 3.08582 -1.65773 -2.60273 0 0.537189 -0.342147 0.0536358 1557.93 
92 3.12973 -1.68128 -2.63979 0 0.666942 -0.424776 0.0850087 1473.46 
96 3.30377 -1.7748 -2.78657 0 0.723295 -0.460675 -0.155706 1896.49 
100 3.997 -2.14726 -3.37124 0 1.01495 -0.646457 -0.209176 2055.42 
104 3.44095 -1.84855 -2.90225 0 0.631406 -0.402166 -0.0236352 1489.44 
108 4.00615 -2.15213 -3.37899 0 0.96918 -0.617284 -0.10085 1692.93 
112 3.44452 -1.85041 -2.90528 0 0.452159 -0.287986 -0.290789 1582.99 
116 3.99916 -2.14839 -3.37309 0 0.83936 -0.534604 0.0418226 1715.2 
120 3.50321 -3.50321 0 0 0 0.154444 0.199267 1308.37 
124 5.51964 -5.51964 0 0 0 0.209604 0.493639 1030.33 
128 5.00749 -5.00749 0 0 0 -0.144492 -0.117083 1820.65 
132 6.25806 -6.25806 0 0 0 0.176744 -0.0850094 1895.23 
