ITEM: TIMESTEP
21000
ITEM: NUMBER OF SURFS
134
ITEM: BOX BOUNDS oo ao pp
-10 10
0 10
-0.5 0.5
ITEM: SURFS id f_avg_pressure[1] f_avg_pressure[2] f_avg_pressure[3] f_avg_pressure[4] f_avg_shear[1] f_avg_shear[2] f_avg_shear[3] f_avg_heat_flux[*] f_avg_fdrag[*] 
1 17.2258 17.2145 0.623123 0 -0.000287426 0.00794047 -0.00190822 13765.1 0.13337 
5 17.2148 17.2147 -0.0571784 0 0.00055096 0.165877 0.0213807 14779.4 1.20088 
9 17.1866 17.1708 -0.736254 0 0.0144806 0.337713 0.00797212 15157.7 2.26429 
13 16.9738 16.9163 -1.39647 0 0.043264 0.524084 -0.00141057 15240.1 3.28428 
17 16.7888 16.6643 -2.04095 0 0.0855744 0.698713 0.00163087 15407.2 4.27704 
21 16.5635 16.3483 -2.66139 0 0.14038 0.862322 0.00593702 15347.5 5.22275 
25 16.2896 15.962 -3.25057 0 0.209665 1.02957 0.000709293 15282.5 6.10887 
29 15.9019 15.4445 -3.78629 0 0.292428 1.19283 0.00172445 15177.8 6.8969 
33 15.4654 14.8635 -4.27283 0 0.392358 1.36485 0.00483878 15010.7 7.60048 
37 14.9919 14.2335 -4.70788 0 0.4945 1.49504 -0.00253897 14911.9 8.21009 
41 14.3302 13.4169 -5.03398 0 0.620444 1.65365 -0.0103622 14707.3 8.64608 
45 13.5194 12.4603 -5.24539 0 0.787375 1.87039 0.00467464 14715.1 8.92294 
49 11.8462 10.7281 -5.02398 0 1.07384 2.29304 0.00360795 14652.8 8.61804 
53 3.74781 1.7712 -3.30287 0 1.87436 1.00514 -0.012741 7108.01 2.75997 
57 0.354516 -0.0986319 -0.340519 0 0.331179 -0.0959266 0.00102565 904.71 0.177462 
61 0.110935 -0.0595954 -0.0935685 0 0.100922 -0.0642791 0.00214823 300.641 0.0313605 
65 0.0852094 -0.0457752 -0.0718698 0 0.075812 -0.048286 0.00593364 227.835 0.0217728 
69 0.0861065 -0.0462563 -0.072627 0 0.0750397 -0.047793 0.00114425 221.758 0.0198867 
73 0.0779202 -0.0418594 -0.0657218 0 0.0680452 -0.0433392 -0.00228024 204.111 0.017202 
77 0.0701921 -0.0377071 -0.0592039 0 0.066288 -0.042219 -0.00225077 204.982 0.0178047 
81 0.0679205 -0.0364874 -0.0572875 0 0.0632099 -0.0402595 0.00099463 194.713 0.0157388 
85 0.0674635 -0.036242 -0.056902 0 0.0594821 -0.0378854 0.00191935 166.997 0.0128982 
89 0.0655884 -0.0352349 -0.0553203 0 0.0582828 -0.0371217 0.00421315 171.848 0.0120088 
93 0.0660452 -0.0354809 -0.0557052 0 0.0607653 -0.0387039 -0.00280249 189.195 0.0123149 
97 0.0649555 -0.0348953 -0.0547863 0 0.0578412 -0.0368411 -0.00465229 175.716 0.0103964 
101 0.0606254 -0.0325683 -0.0511346 0 0.0560831 -0.0357201 -0.00295862 172.51 0.00985506 
105 0.0533324 -0.0286504 -0.0449833 0 0.0465285 -0.0296345 -0.00104667 138.203 0.00688534 
109 0.0518396 -0.0278485 -0.0437242 0 0.0481513 -0.0306682 0.0010894 151.444 0.00712939 
113 0.0497109 -0.026705 -0.0419286 0 0.0466495 -0.0297118 -0.00274909 153.507 0.00632595 
117 0.00549008 -0.00549008 0 0 0 -0.00107028 4.15773e-05 9.50691 -0.00154968 
121 0.00751169 -0.00751169 0 0 0 -0.00103048 0.000465863 11.5918 -0.00163567 
125 0.00575826 -0.00575826 0 0 0 0.000522056 -0.000381869 7.34445 -0.000882349 
129 0.00566495 -0.00566495 0 0 0 0.00194287 0.000273584 8.32416 -0.000502555 
133 0.00413578 -0.00413578 0 0 0 0.000321337 0.000558938 6.57736 -0.000100063 
2 17.2382 17.2322 0.453226 0 -0.00091613 0.0348324 -0.00175401 14207.2 0.400549 
6 17.195 17.1935 -0.227032 0 0.00258441 0.195721 0.00805645 14899.8 1.46617 
10 17.1264 17.1026 -0.902537 0 0.0206392 0.391101 -0.00351749 15166.9 2.52131 
14 16.9281 16.8562 -1.559 0 0.0518763 0.560894 -0.00855343 15295.8 3.53547 
18 16.7576 16.6124 -2.2014 0 0.0970356 0.732257 -0.00573776 15320.5 4.52371 
22 16.5054 16.2639 -2.8132 0 0.154796 0.894917 0.00310587 15357.4 5.45162 
26 16.1803 15.8222 -3.38513 0 0.232905 1.08861 -0.00604336 15254.5 6.30842 
30 15.8055 15.3131 -3.91466 0 0.313585 1.22665 0.00391662 15125.7 7.08361 
34 15.3658 14.7251 -4.39079 0 0.413071 1.38529 -0.00504405 15024.7 7.76691 
38 14.8112 14.0153 -4.78978 0 0.518822 1.51812 0.00942671 14766 8.31572 
42 14.1892 13.235 -5.11539 0 0.660189 1.7081 0.0108561 14784.2 8.75977 
46 13.1938 12.109 -5.23901 0 0.823821 1.90411 -0.00693005 14508.6 8.89549 
50 10.6501 9.35687 -5.08656 0 1.40051 2.57628 0.00720791 14818.3 7.81358 
54 2.29715 0.675972 -2.19545 0 1.50902 0.464625 -0.00741855 4887.76 1.66657 
58 0.170316 -0.0779677 -0.151422 0 0.150147 -0.0773115 -0.00164618 441.815 0.0546878 
62 0.100215 -0.053836 -0.0845262 0 0.0933885 -0.0594806 0.000734656 274.554 0.0296782 
66 0.0881459 -0.0473516 -0.0743473 0 0.0749548 -0.0477385 0.00214435 216.205 0.0197746 
70 0.0871137 -0.0467982 -0.0734761 0 0.0755501 -0.0481192 0.00111918 230.088 0.0196203 
74 0.0692093 -0.0371798 -0.0583745 0 0.0622244 -0.0396318 0.00156787 176.996 0.0162396 
78 0.0732124 -0.0393314 -0.0617503 0 0.067958 -0.0432853 0.000916837 204.898 0.0175899 
82 0.0685007 -0.0368001 -0.0577762 0 0.0590812 -0.0376313 -0.000683593 182.326 0.0129339 
86 0.0603901 -0.0324423 -0.0509359 0 0.053475 -0.0340595 -0.000264518 155.403 0.0114948 
90 0.0612629 -0.0329109 -0.0516722 0 0.0521335 -0.0332048 -0.000682869 157.583 0.00985212 
94 0.0603289 -0.032409 -0.0508845 0 0.0528221 -0.0336431 0.000206792 164.423 0.00976883 
98 0.061374 -0.0329705 -0.051766 0 0.0550053 -0.0350336 0.000539726 167.339 0.0097963 
102 0.0531153 -0.0285338 -0.0448002 0 0.0477687 -0.0304245 0.0026145 144.694 0.007898 
106 0.0614423 -0.0330071 -0.0518236 0 0.055515 -0.0353582 -0.000440691 178.411 0.00847719 
110 0.0479944 -0.0257828 -0.040481 0 0.0441792 -0.0281382 5.73715e-05 129.877 0.00630367 
114 0.04967 -0.0266832 -0.0418941 0 0.0456438 -0.0290715 -0.00184209 139.945 0.00585284 
118 0.00625199 -0.00625199 0 0 0 0.00122031 -0.00082478 9.86418 -0.0016639 
122 0.00748566 -0.00748566 0 0 0 0.000450334 0.00022623 9.54913 -0.00150926 
126 0.00529073 -0.00529073 0 0 0 0.00088117 0.00164919 8.02252 -0.000725369 
130 0.00466674 -0.00466674 0 0 0 0.000178326 -0.0020527 5.77429 -0.000338727 
134 0.00706933 -0.00706933 0 0 0 -0.000418957 0.00151995 30.3187 -5.70129e-05 
3 17.2485 17.2461 0.283257 0 -0.00147054 0.089534 -0.00866019 14485.2 0.668182 
7 17.182 17.1774 -0.39672 0 0.00553838 0.239804 -0.0032657 15012.3 1.73143 
11 17.0679 17.0344 -1.06784 0 0.0265385 0.423349 -0.00318159 15212.2 2.77625 
15 16.8835 16.7956 -1.72109 0 0.0614921 0.600083 -0.0158732 15289.1 3.78496 
19 16.6975 16.5303 -2.35695 0 0.111577 0.782535 0.00153576 15247.1 4.76107 
23 16.4144 16.1459 -2.95697 0 0.17195 0.938894 0.004114 15258.1 5.6672 
27 16.0599 15.6705 -3.51515 0 0.246258 1.09782 -0.0010307 15144.7 6.49516 
31 15.7053 15.1767 -4.04007 0 0.341202 1.28174 -0.00333898 15149.7 7.26714 
35 15.2749 14.5942 -4.5093 0 0.436683 1.41331 -0.00999479 14988.8 7.93497 
39 14.6659 13.8303 -4.87978 0 0.556203 1.57639 0.00151563 14749.1 8.4418 
43 13.9825 12.9918 -5.1695 0 0.692687 1.74083 0.00395302 14691.1 8.82448 
47 12.892 11.7809 -5.23584 0 0.885593 1.99264 0.00121983 14566.3 8.89198 
51 7.96759 6.13757 -5.08062 0 1.92912 2.33045 -0.00351133 12592.9 5.95738 
55 1.30563 0.137037 -1.29842 0 1.00802 0.106388 -0.00458662 2961.72 0.876776 
59 0.117423 -0.0630808 -0.0990407 0 0.100182 -0.0638075 0.00127841 304.415 0.0287841 
63 0.100089 -0.053768 -0.0844208 0 0.0876861 -0.0558476 0.0013519 262.289 0.0251628 
67 0.0851234 -0.045729 -0.0717973 0 0.0779174 -0.049627 -0.00154831 235.676 0.0227856 
71 0.0780709 -0.041941 -0.0658484 0 0.0698635 -0.0444984 -0.00184241 202.318 0.0188177 
75 0.0801562 -0.0430609 -0.0676076 0 0.0727974 -0.0463664 0.000355681 216.427 0.0190299 
79 0.0678633 -0.0364567 -0.0572393 0 0.059786 -0.0380788 -0.00133487 187.717 0.0141366 
83 0.0673458 -0.0361781 -0.0568032 0 0.0605602 -0.0385709 0.00362937 188.876 0.0139465 
87 0.0621421 -0.0333832 -0.0524137 0 0.0552642 -0.0351987 -0.00194102 161.788 0.0117722 
91 0.0592403 -0.0318245 -0.0499662 0 0.0526782 -0.0335518 -0.00127773 157.412 0.0105111 
95 0.059833 -0.0321426 -0.0504663 0 0.0524491 -0.0334055 -0.00389792 164.966 0.00954533 
99 0.0606511 -0.0325821 -0.0511563 0 0.0504116 -0.0321078 0.00243365 156.386 0.00777522 
103 0.0496174 -0.0266547 -0.0418498 0 0.0452549 -0.0288234 -0.000337806 142.948 0.00747938 
107 0.0562198 -0.0302023 -0.0474182 0 0.0514705 -0.0327834 0.00186182 152.684 0.00782975 
111 0.0494226 -0.0265508 -0.0416851 0 0.0457779 -0.0291577 0.00145732 138.41 0.00642511 
115 0.0535897 -0.0287889 -0.0452002 0 0.0508622 -0.032395 0.00128881 156.157 0.0066262 
119 0.00688627 -0.00688627 0 0 0 0.000533658 -0.000105311 10.5952 -0.00172163 
123 0.00659085 -0.00659085 0 0 0 -0.000565065 0.000141281 10.5731 -0.00122254 
127 0.00624666 -0.00624666 0 0 0 -0.000352091 -0.000300872 5.7927 -0.000755672 
131 0.00833869 -0.00833869 0 0 -2.72837e-18 0.00304793 -0.000654621 21.3368 -0.00047075 
4 17.25 17.2497 0.112855 0 -0.000766217 0.117115 -0.0230878 14649.9 0.935779 
8 17.1921 17.1828 -0.566533 0 0.00954604 0.289529 0.00760663 15180.6 1.99884 
12 17.0501 17.0053 -1.23457 0 0.0341135 0.469891 -0.00218712 15158.5 3.03634 
16 16.8795 16.7737 -1.88649 0 0.0713513 0.634418 -0.00210911 15267.5 4.04195 
20 16.6303 16.4398 -2.50971 0 0.124738 0.817093 -0.00240944 15355.4 4.99303 
24 16.3504 16.053 -3.10413 0 0.191024 0.987882 -0.013665 15334.3 5.88907 
28 16.0107 15.5872 -3.65804 0 0.27231 1.16034 -0.0109237 15206.5 6.71152 
32 15.5702 15.006 -4.15363 0 0.362345 1.30906 0.00824355 15056.6 7.42695 
36 15.1146 14.3962 -4.6044 0 0.464768 1.45316 -0.00303467 14954.8 8.06498 
40 14.4989 13.6245 -4.95883 0 0.582706 1.601 0.00318551 14765.7 8.54402 
44 13.7799 12.7525 -5.22101 0 0.736149 1.79807 0.00620897 14750.5 8.89217 
48 12.4892 11.3623 -5.18458 0 0.974803 2.13633 0.00191336 14646.4 8.83522 
52 5.61487 3.55578 -4.34548 0 2.05922 1.685 -5.01302e-06 9795.9 4.20513 
56 0.688725 -0.0608167 -0.686034 0 0.620296 -0.054989 0.00266411 1731.82 0.42845 
60 0.106905 -0.0574305 -0.0901684 0 0.0918554 -0.0585049 -0.000486111 273.232 0.0264163 
64 0.0949539 -0.0510117 -0.0800878 0 0.0865555 -0.0551312 -0.000809272 262.228 0.026067 
68 0.087921 -0.047233 -0.0741562 0 0.0763974 -0.0486605 0.00550878 224.968 0.0203975 
72 0.0799349 -0.0429416 -0.0674211 0 0.0699168 -0.0445311 -0.001454 210.33 0.0179497 
76 0.0691629 -0.037155 -0.0583354 0 0.0576035 -0.0366889 -0.000446984 178.089 0.0129121 
80 0.0731056 -0.0392723 -0.0616613 0 0.0649895 -0.041392 -0.000646057 198.448 0.0153654 
84 0.0670456 -0.0360175 -0.0565495 0 0.0606924 -0.0386562 0.000103825 184.785 0.0139041 
88 0.0603072 -0.0323976 -0.0508661 0 0.0532367 -0.0339075 0.00218548 166.469 0.0110346 
92 0.061326 -0.0329442 -0.0517258 0 0.0525957 -0.0334982 0.00279646 168.2 0.00973832 
96 0.0602156 -0.0323481 -0.0507889 0 0.058968 -0.0375574 -0.000697526 178.059 0.012287 
100 0.0508161 -0.0272994 -0.0428605 0 0.0447607 -0.0285097 0.00321069 135.615 0.00746648 
104 0.0522973 -0.0280952 -0.0441098 0 0.0475601 -0.0302928 0.00465599 140.185 0.00766187 
108 0.0593034 -0.0318581 -0.0500196 0 0.0533536 -0.0339816 0.000539628 162.133 0.00773074 
112 0.0535565 -0.0287709 -0.0451723 0 0.051082 -0.0325348 -0.00271769 162.474 0.00726606 
116 0.0456543 -0.0245259 -0.0385071 0 0.0452519 -0.0288218 -0.00287371 146.267 0.00604572 
120 0.00652469 -0.00652469 0 0 0 0.000877904 0.00011011 12.311 -0.00152599 
124 0.00787346 -0.00787346 0 0 0 0.00109254 8.43721e-05 10.8757 -0.00133346 
128 0.00708046 -0.00708046 0 0 0 0.0036902 0.00098118 13.7876 -0.000742335 
132 0.00674204 -0.00674204 0 0 0 0.00349641 0.00105259 6.94238 -0.000271867 
