ITEM: TIMESTEP
14000
ITEM: NUMBER OF SURFS
134
ITEM: BOX BOUNDS oo ao pp
-10 10
0 10
-0.5 0.5
ITEM: SURFS id f_avg_pressure[1] f_avg_pressure[2] f_avg_pressure[3] f_avg_pressure[4] f_avg_shear[1] f_avg_shear[2] f_avg_shear[3] f_avg_heat_flux[*] f_avg_fdrag[*] 
1 17.2153 17.2041 0.622745 0 -0.00161287 0.0445576 -0.0130892 14130.5 0.133279 
5 17.1714 17.1714 -0.0570345 0 0.0005067 0.152552 0.0105275 15042.3 1.19786 
9 17.1451 17.1294 -0.734479 0 0.0157243 0.366719 0.0178911 15667.3 2.259 
13 16.9128 16.8554 -1.39144 0 0.0496062 0.600911 0.00286245 15469 3.27373 
17 16.7452 16.621 -2.03564 0 0.0855856 0.698804 -0.0152411 15593.2 4.26599 
21 16.5968 16.3811 -2.66673 0 0.146899 0.902369 -0.0311042 15659.4 5.23521 
25 16.3235 15.9952 -3.25733 0 0.21539 1.05768 -0.031216 15737 6.12359 
29 15.91 15.4524 -3.78822 0 0.306239 1.24917 -0.0307203 15455.2 6.9064 
33 15.477 14.8746 -4.27603 0 0.403349 1.40309 0.0231648 15327.9 7.6115 
37 15.0119 14.2525 -4.71416 0 0.497933 1.50542 -0.0147228 15273.6 8.2226 
41 14.3454 13.4312 -5.03933 0 0.624411 1.66422 0.0122632 15119.6 8.65731 
45 13.5624 12.4999 -5.26208 0 0.785602 1.86618 0.0113832 14984.4 8.94846 
49 11.926 10.8004 -5.05784 0 1.08529 2.31751 -0.0186942 15007.8 8.67922 
53 3.70983 1.75324 -3.2694 0 1.86758 1.00151 -0.000651744 7062.1 2.74125 
57 0.381008 -0.106002 -0.365965 0 0.349071 -0.101109 0.0200777 944.267 0.185491 
61 0.0961543 -0.0516549 -0.0811013 0 0.0846438 -0.0539111 -0.00247426 258.863 0.0250335 
65 0.0735762 -0.0395257 -0.0620578 0 0.0645262 -0.0410979 0.00637607 214.011 0.0181221 
69 0.0863295 -0.0463761 -0.0728151 0 0.0738368 -0.0470269 -0.00169473 217.002 0.0189728 
73 0.0786781 -0.0422665 -0.066361 0 0.0789427 -0.05028 1.70274e-05 232.252 0.0240934 
77 0.0547875 -0.0294318 -0.0462108 0 0.0439798 -0.0280109 -0.00352233 133.124 0.00906279 
81 0.0707674 -0.0380168 -0.0596887 0 0.0645235 -0.0410962 0.000557071 189.29 0.0156117 
85 0.085671 -0.0460233 -0.0722591 0 0.0739672 -0.0471112 0.00691803 212.872 0.0155088 
89 0.0569284 -0.0305826 -0.0480161 0 0.0459449 -0.0292634 0.00842923 150.889 0.00800432 
93 0.0611498 -0.032851 -0.0515763 0 0.0582004 -0.0370702 -0.00663373 179.985 0.0123465 
97 0.0635368 -0.0341332 -0.0535897 0 0.0615884 -0.0392279 -0.0103881 188.354 0.0124395 
101 0.0478344 -0.0256969 -0.040346 0 0.0496781 -0.0316407 -0.00580333 126.909 0.0100506 
105 0.0493013 -0.0264849 -0.0415833 0 0.0449452 -0.0286261 -0.00389432 144.973 0.00710957 
109 0.0348684 -0.0187315 -0.0294098 0 0.0286414 -0.0182421 -0.00306879 89.6184 0.0034799 
113 0.0468571 -0.025172 -0.0395216 0 0.0532121 -0.0338917 0.00119143 150.537 0.00889373 
117 0.00796941 -0.00796941 0 0 0 0.00188807 -0.00255838 9.91218 -0.00224951 
121 0.00524968 -0.00524968 0 0 0 6.65853e-05 -0.000436154 3.47741 -0.00114312 
125 0.0127892 -0.0127892 0 0 0 0.00165549 -0.00142012 10.5157 -0.0019597 
129 0.00666976 -0.00666976 0 0 0 0.00153667 -0.0014359 9.19298 -0.000591695 
133 0.00889388 -0.00889388 0 0 0 0.003703 0.00218417 31.5522 -0.000215182 
2 17.2778 17.2719 0.454269 0 -0.000491171 0.0186749 -0.00714093 14610.2 0.401481 
6 17.2256 17.2241 -0.227436 0 0.00257491 0.195002 0.00978907 15289.9 1.46878 
10 17.1514 17.1276 -0.903857 0 0.0212038 0.4018 0.00444288 15595.8 2.52508 
14 16.941 16.869 -1.56019 0 0.0542843 0.586931 0.017255 15695.2 3.53867 
18 16.6564 16.5121 -2.18811 0 0.0973852 0.734894 -0.0244888 15531.9 4.49666 
22 16.5031 16.2616 -2.81281 0 0.156231 0.903214 0.0323943 15628.7 5.45134 
26 16.1386 15.7814 -3.37639 0 0.234377 1.09549 0.0115197 15586.1 6.29295 
30 15.8002 15.3079 -3.91333 0 0.304618 1.19158 0.00952362 15388.3 7.07719 
34 15.4484 14.8043 -4.41439 0 0.420504 1.41022 -0.00580677 15482.3 7.81133 
38 14.7778 13.9837 -4.77896 0 0.519747 1.52083 -0.0289048 14928.2 8.29814 
42 14.245 13.2871 -5.13553 0 0.673149 1.74163 0.0192339 15192.7 8.80078 
46 13.2544 12.1647 -5.2631 0 0.832933 1.92517 0.0212076 14845.4 8.94005 
50 10.7216 9.41975 -5.12074 0 1.42555 2.62235 0.0322789 15069.3 7.87744 
54 2.26908 0.667711 -2.16861 0 1.48974 0.458688 -0.0136543 4846.74 1.64556 
58 0.172481 -0.078959 -0.153347 0 0.152349 -0.0784453 -0.00338256 443.246 0.055605 
62 0.0786219 -0.0422362 -0.0663137 0 0.0652445 -0.0415552 -0.004925 211.995 0.0172643 
66 0.0941928 -0.0506 -0.0794476 0 0.07944 -0.0505951 -0.000251996 234.204 0.0206607 
70 0.0856039 -0.0459871 -0.0722025 0 0.0820085 -0.0522327 0.00356981 214.963 0.0245811 
74 0.0690165 -0.0370762 -0.0582119 0 0.0628119 -0.040006 0.00354176 171.417 0.0166877 
78 0.0737954 -0.0396446 -0.0622421 0 0.067608 -0.0430624 0.00948179 185.453 0.0171824 
82 0.0693346 -0.0372481 -0.0584796 0 0.0604707 -0.0385163 -0.00502963 181.209 0.0134804 
86 0.0584783 -0.0314152 -0.0493234 0 0.0372878 -0.0237495 -0.00143915 125.165 0.00320948 
90 0.0662323 -0.0355806 -0.0558636 0 0.0579393 -0.0369026 -0.00139886 178.228 0.0114595 
94 0.058418 -0.0313825 -0.0492727 0 0.0477889 -0.0304374 0.00913239 127.431 0.00785142 
98 0.0650616 -0.0349515 -0.0548763 0 0.0565436 -0.0360134 -0.00273536 169.279 0.00959949 
102 0.0516295 -0.0277357 -0.043547 0 0.0496945 -0.0316511 0.00797865 155.011 0.00901649 
106 0.0460171 -0.0247206 -0.0388132 0 0.0473242 -0.0301414 0.0028962 154.547 0.00851325 
110 0.0389772 -0.0209387 -0.0328754 0 0.0405973 -0.0258569 0.00258639 100.803 0.00673616 
114 0.0535694 -0.028778 -0.0451831 0 0.0495425 -0.0315546 -0.00396868 154.696 0.00640965 
118 0.00592954 -0.00592954 0 0 0 0.000776177 0.00135422 7.86575 -0.00157808 
122 0.0125137 -0.0125137 0 0 0 -0.000495679 -0.00167033 13.5639 -0.00252302 
126 0.00294406 -0.00294406 0 0 0 0.000351491 0.00229173 6.24011 -0.000403636 
130 0.00217646 -0.00217646 0 0 0 -0.00181493 -0.00172882 5.47209 -0.000157975 
134 0.00848888 -0.00848888 0 0 0 0.00761248 0.00547959 18.8039 -6.84613e-05 
3 17.3182 17.3159 0.284404 0 -0.00129617 0.0789174 -0.0335032 14845.2 0.670893 
7 17.1741 17.1695 -0.396538 0 0.00598923 0.259325 0.0127137 15382.9 1.73068 
11 17.153 17.1194 -1.07317 0 0.0289898 0.462451 -0.00183115 15807.5 2.79048 
15 16.7966 16.7091 -1.71222 0 0.0610326 0.595599 -0.0539424 15518 3.76544 
19 16.8107 16.6423 -2.37293 0 0.112005 0.785539 -0.00480506 15681.9 4.79326 
23 16.4212 16.1525 -2.95819 0 0.174224 0.951312 -0.0179901 15501.4 5.67031 
27 16.0799 15.69 -3.51953 0 0.258366 1.15179 0.0115196 15474.3 6.50807 
31 15.6949 15.1667 -4.0374 0 0.343842 1.29166 -0.00487447 15508.3 7.26368 
35 15.3996 14.7133 -4.5461 0 0.456448 1.47727 -0.0544316 15560.2 8.00827 
39 14.606 13.7738 -4.85985 0 0.557005 1.57867 0.00740399 14959.9 8.40913 
43 13.9307 12.9436 -5.15034 0 0.69912 1.757 0.00200764 14869.2 8.79757 
47 12.8862 11.7756 -5.23348 0 0.901958 2.02946 0.0233117 14762.7 8.89975 
51 8.00932 6.16972 -5.10723 0 1.96562 2.37454 0.0180882 12757.5 6.00807 
55 1.31432 0.137948 -1.30706 0 1.0266 0.108349 -0.037059 3143.81 0.891704 
59 0.118174 -0.0634838 -0.0996734 0 0.109567 -0.0697852 -0.00651858 357.62 0.0357528 
63 0.102921 -0.0552893 -0.0868094 0 0.0923382 -0.0588106 0.00656181 259.643 0.0274855 
67 0.0967344 -0.0519665 -0.0815906 0 0.0947449 -0.0603447 -0.00160837 301.71 0.0302821 
71 0.0923348 -0.0496039 -0.0778793 0 0.0863965 -0.0550288 -0.00265237 232.238 0.0247956 
75 0.0808217 -0.0434184 -0.0681688 0 0.0754175 -0.0480353 0.00471131 251.191 0.0204779 
79 0.079029 -0.042455 -0.066657 0 0.0727306 -0.0463234 -0.00287956 224.853 0.0183458 
83 0.0545874 -0.0293243 -0.0460421 0 0.0360426 -0.0229556 0.0114498 118.688 0.00384286 
87 0.0702828 -0.0377565 -0.05928 0 0.0626513 -0.0399037 -0.00331763 167.808 0.0133937 
91 0.0544198 -0.0292348 -0.0459003 0 0.0442163 -0.0281622 -0.000643853 144.539 0.00755119 
95 0.0475662 -0.0255528 -0.0401197 0 0.0297225 -0.0189307 0.0045224 101.021 0.00196003 
99 0.0686232 -0.0368648 -0.0578803 0 0.0515364 -0.0328242 -0.00758275 180.476 0.00639814 
103 0.0529712 -0.0284564 -0.0446786 0 0.056681 -0.0361009 -0.00618965 194.233 0.0113495 
107 0.0455967 -0.0244954 -0.0384582 0 0.0382202 -0.0243438 -0.000486115 101.021 0.00505271 
111 0.0444361 -0.0238719 -0.0374792 0 0.0412751 -0.0262897 0.00103602 137.544 0.00581559 
115 0.0541525 -0.0290911 -0.0456749 0 0.0468279 -0.0298255 -0.00658805 145.616 0.00532441 
119 0.00636333 -0.00636333 0 0 0 0.00127061 -0.000819891 10.9051 -0.00159089 
123 0.0101377 -0.0101377 0 0 0 -0.00501628 -0.000517616 14.6818 -0.00188045 
127 0.0104103 -0.0104103 0 0 0 -0.00413481 0.00461819 6.57284 -0.00125935 
131 0.0146137 -0.0146137 0 0 -5.20228e-18 0.00633353 0.00949217 18.9921 -0.000824997 
4 17.2642 17.2639 0.112948 0 -0.000866867 0.132499 -0.027521 15005 0.936545 
8 17.1478 17.1385 -0.565072 0 0.00945346 0.286721 0.0168326 15485.7 1.99368 
12 17.0332 16.9885 -1.23335 0 0.0347264 0.478334 -0.0547218 15563.8 3.03345 
16 16.8774 16.7716 -1.88626 0 0.0760278 0.675999 0.0481241 15635.1 4.04257 
20 16.5826 16.3927 -2.50251 0 0.123163 0.806775 0.0248926 15644.8 4.97833 
24 16.3337 16.0367 -3.10096 0 0.196605 1.01674 -0.000328862 15729.3 5.88516 
28 16.0173 15.5936 -3.65954 0 0.284418 1.21193 0.0161723 15576 6.71936 
32 15.6054 15.0399 -4.16301 0 0.379506 1.37106 0.00102396 15540.9 7.45163 
36 15.1021 14.3843 -4.60058 0 0.483819 1.51272 -0.0425428 15252.6 8.06885 
40 14.4884 13.6147 -4.95525 0 0.589348 1.61925 0.0175753 15035.9 8.5421 
44 13.8943 12.8583 -5.26435 0 0.741431 1.81097 0.0203464 15212.2 8.96544 
48 12.6328 11.4929 -5.24419 0 0.992865 2.17592 -0.0133055 15066.2 8.94171 
52 5.64394 3.57419 -4.36797 0 2.07731 1.6998 -0.0217157 9930.17 4.23246 
56 0.694938 -0.0613653 -0.692223 0 0.62434 -0.0553475 0.00821974 1808.52 0.431126 
60 0.113378 -0.060908 -0.0956284 0 0.104001 -0.0662407 -0.0122059 309.063 0.0330677 
64 0.0942026 -0.050608 -0.0794541 0 0.0896317 -0.0570906 0.00821224 254.483 0.0286189 
68 0.0853528 -0.0458533 -0.0719901 0 0.0707867 -0.0450868 0.00626977 205.962 0.0174384 
72 0.0780041 -0.0419043 -0.0657926 0 0.0660052 -0.0420397 0.00304271 186.594 0.016037 
76 0.0803466 -0.043163 -0.0677682 0 0.0638476 -0.0406658 0.00223689 244.32 0.0130611 
80 0.0655074 -0.0351905 -0.0552525 0 0.053678 -0.0341877 -0.00160628 159.955 0.0110459 
84 0.0816401 -0.0438578 -0.0688593 0 0.0587534 -0.0374212 0.000889673 181.711 0.00839355 
88 0.0670263 -0.0360072 -0.0565333 0 0.061143 -0.0389432 0.0151629 174.798 0.0133099 
92 0.0689196 -0.0370235 -0.0581307 0 0.0668914 -0.0426032 0.000466078 192.72 0.0148011 
96 0.0617379 -0.0331659 -0.0520729 0 0.0610819 -0.0389038 -0.000792354 183.856 0.0128852 
100 0.0493699 -0.0265224 -0.0416407 0 0.0395933 -0.0252184 -0.00382962 135.778 0.0055891 
104 0.0499568 -0.0268378 -0.0421357 0 0.0496372 -0.0316158 0.0026455 151.424 0.00897443 
108 0.0489571 -0.0263 -0.0412929 0 0.036621 -0.0233244 -0.00417695 105.18 0.00371188 
112 0.050171 -0.0269521 -0.0423168 0 0.0423673 -0.0269843 -0.00227314 141.74 0.00502028 
116 0.0336233 -0.0180627 -0.0283595 0 0.0373154 -0.0237669 -0.00817399 106.107 0.00561594 
120 0.00994842 -0.00994842 0 0 0 0.00816953 0.00281289 28.4421 -0.00232673 
124 0.0073903 -0.0073903 0 0 0 0.00109387 -0.000151743 7.14194 -0.00125163 
128 0.00246389 -0.00246389 0 0 0 -0.000948231 -0.000514166 4.4646 -0.000258321 
132 0.0109969 -0.0109969 0 0 0 0.00516702 0.000804308 0.324541 -0.00044344 
