ITEM: TIMESTEP
17000
ITEM: NUMBER OF SURFS
134
ITEM: BOX BOUNDS oo ao pp
-10 10
0 10
-0.5 0.5
ITEM: SURFS id f_avg_pressure[1] f_avg_pressure[2] f_avg_pressure[3] f_avg_pressure[4] f_avg_shear[1] f_avg_shear[2] f_avg_shear[3] f_avg_heat_flux[*] f_avg_fdrag[*] 
1 17.1831 17.1719 0.621579 0 -0.00012443 0.00343754 -0.00584166 13745.3 0.133041 
5 17.2153 17.2152 -0.0571802 0 0.000522285 0.157244 0.0187035 14836 1.20092 
9 17.1716 17.1558 -0.735614 0 0.0148856 0.347159 0.00379543 15212.8 2.26238 
13 16.9766 16.919 -1.39669 0 0.0444653 0.538636 0.000248117 15284 3.28505 
17 16.7599 16.6356 -2.03744 0 0.0857147 0.699858 0.00883914 15403.6 4.26976 
21 16.5749 16.3595 -2.66322 0 0.141955 0.871999 -0.0055707 15378.7 5.2268 
25 16.3071 15.9791 -3.25404 0 0.208988 1.02624 -0.00364836 15324.5 6.11507 
29 15.9069 15.4494 -3.78749 0 0.29473 1.20222 -0.00633774 15215.1 6.90005 
33 15.4954 14.8923 -4.28112 0 0.39648 1.37919 0.00332059 15087.3 7.6169 
37 14.9977 14.239 -4.7097 0 0.494951 1.4964 -0.000503275 14968.4 8.21342 
41 14.3412 13.4272 -5.03785 0 0.62262 1.65945 -0.00814382 14775.5 8.65379 
45 13.5426 12.4817 -5.25441 0 0.790171 1.87703 -0.00366084 14781.4 8.93927 
49 11.8696 10.7493 -5.0339 0 1.07641 2.29855 -0.00406028 14736.4 8.6354 
53 3.72732 1.76151 -3.28481 0 1.86541 1.00035 -0.000299827 7072.94 2.74587 
57 0.361795 -0.100657 -0.347511 0 0.332442 -0.0962923 0.00112956 908.597 0.17688 
61 0.111795 -0.0600572 -0.0942934 0 0.104894 -0.0668089 0.00190287 321.109 0.0340243 
65 0.0829864 -0.044581 -0.0699948 0 0.0751565 -0.0478685 0.0038765 240.903 0.0221633 
69 0.089589 -0.0481271 -0.0755643 0 0.0743108 -0.0473288 0.00155431 231.034 0.0180905 
73 0.0805086 -0.0432499 -0.067905 0 0.0719734 -0.0458412 -0.000512687 216.917 0.0188691 
77 0.0716889 -0.0385112 -0.0604664 0 0.0679886 -0.0433022 -0.00402671 203.807 0.0183632 
81 0.0698558 -0.0375271 -0.0589198 0 0.0637034 -0.0405739 -0.00110813 188.104 0.0154171 
85 0.0640337 -0.0343995 -0.0540092 0 0.0547395 -0.0348647 0.00457952 157.853 0.0112887 
89 0.0649314 -0.0348819 -0.0547662 0 0.0560408 -0.0356937 0.00480093 170.655 0.0110246 
93 0.0623798 -0.0335118 -0.0526137 0 0.058313 -0.0371419 -0.00441138 178.797 0.0120796 
97 0.0648441 -0.0348355 -0.0546923 0 0.0589674 -0.0375584 -0.00544223 187.887 0.0109337 
101 0.0623376 -0.0334881 -0.0525787 0 0.0574033 -0.0365609 -0.00342329 164.327 0.0100229 
105 0.0572342 -0.0307464 -0.0482743 0 0.0538848 -0.0343198 -0.00282368 169.94 0.0089112 
109 0.0522572 -0.0280728 -0.0440764 0 0.0479605 -0.0305467 0.000913434 153.136 0.00698363 
113 0.0529129 -0.0284252 -0.0446294 0 0.0498058 -0.0317221 -0.00218122 156.547 0.00678146 
117 0.00685072 -0.00685072 0 0 0 -0.00140991 -0.000946974 10.3787 -0.00193374 
121 0.00533815 -0.00533815 0 0 0 -0.00235314 -4.92596e-05 6.32772 -0.00116239 
125 0.0069159 -0.0069159 0 0 0 0.000821081 -0.000755467 6.98781 -0.00105973 
129 0.00555607 -0.00555607 0 0 0 0.00327386 0.000270941 7.95154 -0.000492896 
133 0.0068799 -0.0068799 0 0 0 0.00105094 0.000806581 12.3461 -0.000166455 
2 17.2261 17.2201 0.452908 0 -0.000455098 0.0173034 -0.00198535 14219.4 0.400279 
6 17.2122 17.2107 -0.227259 0 0.00242933 0.183977 0.00983847 14999.7 1.46762 
10 17.1152 17.0915 -0.901951 0 0.0206544 0.39139 0.00244301 15173.1 2.51968 
14 16.957 16.885 -1.56167 0 0.0525211 0.567866 -0.0129002 15395.3 3.54163 
18 16.7349 16.5899 -2.19843 0 0.0948679 0.715899 -0.00594588 15358.2 4.51705 
22 16.4839 16.2427 -2.80953 0 0.155464 0.89878 0.0103884 15368.7 5.44479 
26 16.1707 15.8129 -3.38312 0 0.235554 1.10099 -0.00389488 15319.2 6.30578 
30 15.7984 15.3062 -3.91291 0 0.314096 1.22865 0.00263888 15148.5 7.08073 
34 15.37 14.7291 -4.39199 0 0.417528 1.40024 -0.0180648 15078 7.77125 
38 14.8098 14.014 -4.78933 0 0.519556 1.52027 -0.00838396 14809.7 8.31539 
42 14.2144 13.2585 -5.12449 0 0.662896 1.7151 0.0190857 14854 8.77631 
46 13.1912 12.1066 -5.23799 0 0.823549 1.90348 -0.00060571 14541.1 8.89367 
50 10.6556 9.36172 -5.08919 0 1.41025 2.5942 0.0125333 14837.3 7.82418 
54 2.28602 0.672695 -2.1848 0 1.48931 0.458554 0.00297847 4849.84 1.64903 
58 0.176711 -0.080895 -0.157107 0 0.151029 -0.0777656 0.000439049 459.36 0.053138 
62 0.0954014 -0.0512503 -0.0804664 0 0.086494 -0.0550894 -0.0010335 249.718 0.0264452 
66 0.0887967 -0.0477012 -0.0748962 0 0.0735415 -0.0468384 0.00625893 208.188 0.0185117 
70 0.0790537 -0.0424683 -0.0666778 0 0.0711389 -0.0453096 0.00662742 213.777 0.0195649 
74 0.0657457 -0.0353191 -0.0554532 0 0.0579343 -0.0368994 0.00434298 159.386 0.0146643 
78 0.0735418 -0.0395083 -0.0620281 0 0.0689113 -0.0438925 0.00546801 200.11 0.018067 
82 0.0669767 -0.0359814 -0.0564909 0 0.0583141 -0.0371427 -0.000544708 173.51 0.0129638 
86 0.064059 -0.0344133 -0.0540304 0 0.0525699 -0.033483 -0.00325503 152.845 0.0099229 
90 0.063816 -0.0342825 -0.0538256 0 0.0538425 -0.0342932 -0.000635297 157.167 0.0100251 
94 0.062556 -0.0336054 -0.052763 0 0.0552549 -0.0351926 0.00339289 177.524 0.0103605 
98 0.0587456 -0.0315585 -0.0495491 0 0.0475288 -0.0302717 -0.00270534 148.06 0.0071001 
102 0.0521452 -0.0280127 -0.043982 0 0.0459012 -0.029235 0.00511595 144.029 0.00734516 
106 0.0601059 -0.0322892 -0.0506964 0 0.0538024 -0.0342675 0.00265588 176.35 0.00810256 
110 0.0451628 -0.0242617 -0.0380927 0 0.0392694 -0.0250111 5.09856e-05 116.228 0.00514252 
114 0.0499665 -0.0268425 -0.0421442 0 0.0432283 -0.027533 -0.00162395 132.884 0.00505804 
118 0.00490763 -0.00490763 0 0 0 0.000933404 -5.97202e-05 8.28382 -0.00130611 
122 0.00884774 -0.00884774 0 0 0 0.000184851 -0.00037044 10.9518 -0.00178389 
126 0.00474102 -0.00474102 0 0 0 0.00106449 0.00124592 6.31409 -0.000650003 
130 0.00621972 -0.00621972 0 0 0 -0.000859887 -0.00331657 8.54382 -0.000451448 
134 0.009817 -0.009817 0 0 0 -0.000592048 0.00456366 59.7611 -7.91723e-05 
3 17.2781 17.2758 0.283744 0 -0.00140539 0.0855674 -0.00762034 14555.1 0.669334 
7 17.2095 17.2049 -0.397354 0 0.00555711 0.240615 0.0121632 15098.3 1.7342 
11 17.0691 17.0356 -1.06792 0 0.0270087 0.430848 0.00298271 15275.5 2.77652 
15 16.8446 16.7569 -1.71712 0 0.0607572 0.592911 0.00129725 15241.6 3.77611 
19 16.7152 16.5478 -2.35945 0 0.111637 0.782954 0.00569654 15305.9 4.7661 
23 16.4185 16.1499 -2.95771 0 0.171937 0.938824 -0.0063556 15324 5.6686 
27 16.0096 15.6214 -3.50415 0 0.248833 1.10929 0.000137354 15104.9 6.4762 
31 15.6659 15.1387 -4.02995 0 0.339505 1.27537 -0.00363085 15131.9 7.24855 
35 15.2882 14.6068 -4.51321 0 0.438301 1.41854 -0.0104587 15066.6 7.9425 
39 14.6973 13.8599 -4.89021 0 0.555992 1.5758 0.00496775 14806.4 8.45902 
43 14.0436 13.0486 -5.1921 0 0.69907 1.75687 2.59063e-05 14805.3 8.86522 
47 12.9191 11.8056 -5.24682 0 0.890416 2.00349 0.00443731 14669.4 8.91271 
51 7.98425 6.15041 -5.09125 0 1.94021 2.34384 0.00572931 12686.9 5.97505 
55 1.2969 0.13612 -1.28974 0 1.00941 0.106534 0.00129701 3007.51 0.877135 
59 0.115797 -0.0622071 -0.097669 0 0.103473 -0.0659035 -0.0053062 306.681 0.032015 
63 0.100163 -0.0538076 -0.0844831 0 0.0901364 -0.0574083 0.00214926 261.407 0.0269512 
67 0.0809415 -0.0434825 -0.0682701 0 0.0782415 -0.0498334 -0.00207107 228.858 0.0246054 
71 0.0853759 -0.0458654 -0.0720098 0 0.0784701 -0.0499802 -0.000528649 229.873 0.0219732 
75 0.0800453 -0.0430013 -0.067514 0 0.0733761 -0.046735 0.00274861 218.56 0.0194384 
79 0.0728731 -0.039148 -0.0614648 0 0.0616515 -0.0392669 -0.00336424 195.902 0.0136362 
83 0.0696922 -0.0374385 -0.0587823 0 0.0611882 -0.0389708 0.00615024 189.59 0.0135847 
87 0.0636187 -0.0341765 -0.0536592 0 0.0563931 -0.0359178 -0.00136491 157.653 0.0119527 
91 0.0584305 -0.0313894 -0.0492832 0 0.0504828 -0.0321535 -0.000897999 151.696 0.00962374 
95 0.0590338 -0.0317133 -0.0497921 0 0.0525188 -0.03345 -0.00301129 167.161 0.00977993 
99 0.057184 -0.0307195 -0.0482319 0 0.0469643 -0.0299122 0.00127359 151.265 0.00708414 
103 0.0511322 -0.0274685 -0.0431275 0 0.0443169 -0.0282261 0.000270505 147.78 0.00677499 
107 0.0523631 -0.0281304 -0.0441653 0 0.0433604 -0.0276178 0.00419207 125.596 0.00560683 
111 0.0472319 -0.0253739 -0.0398373 0 0.0461939 -0.0294227 0.00429556 137.518 0.00695741 
115 0.0536665 -0.0288301 -0.045265 0 0.0532095 -0.0338901 0.00231633 161.691 0.00731848 
119 0.00525023 -0.00525023 0 0 0 0.00103982 0.000172984 7.38525 -0.00131261 
123 0.00636512 -0.00636512 0 0 0 -0.00248702 0.000929161 10.2597 -0.00118067 
127 0.00693277 -0.00693277 0 0 0 -0.000395609 0.000924303 6.59059 -0.000838672 
131 0.0119116 -0.0119116 0 0 -3.94883e-18 0.00589316 -0.00113691 37.8131 -0.000672456 
4 17.2456 17.2452 0.112826 0 -0.000789605 0.12069 -0.0110683 14681.4 0.935536 
8 17.1997 17.1904 -0.566784 0 0.00992217 0.300937 0.0224865 15277 1.99977 
12 17.0557 17.0109 -1.23497 0 0.033926 0.467308 -0.0087918 15235 3.0373 
16 16.8752 16.7694 -1.88601 0 0.0726536 0.645998 0.00281887 15301.9 4.04124 
20 16.6206 16.4303 -2.50826 0 0.119994 0.786018 0.0019488 15355.7 4.98872 
24 16.3529 16.0555 -3.10461 0 0.195019 1.00854 -0.012301 15429.4 5.89142 
28 15.9842 15.5615 -3.65199 0 0.274423 1.16934 -0.0101761 15215.7 6.70151 
32 15.562 14.998 -4.15142 0 0.363535 1.31336 0.00379057 15086.1 7.42368 
36 15.1031 14.3853 -4.60088 0 0.468661 1.46533 -0.0133373 14973.7 8.06113 
40 14.5062 13.6314 -4.96135 0 0.580977 1.59625 0.0231961 14823.1 8.54714 
44 13.8307 12.7995 -5.24026 0 0.730831 1.78508 0.0187897 14862.7 8.91966 
48 12.5123 11.3833 -5.19417 0 0.978274 2.14394 0.00319801 14668.6 8.85276 
52 5.63201 3.56664 -4.35874 0 2.06127 1.68668 -0.00262424 9815.88 4.21479 
56 0.705895 -0.0623329 -0.703138 0 0.636174 -0.0563966 -0.00443651 1801.09 0.439448 
60 0.107468 -0.057733 -0.0906434 0 0.0943195 -0.0600744 0.000293841 292.399 0.028075 
64 0.0942249 -0.05062 -0.0794729 0 0.0874596 -0.0557071 -0.00332833 266.314 0.0270172 
68 0.0903524 -0.0485392 -0.076207 0 0.079694 -0.0507602 0.00633174 244.03 0.0217895 
72 0.0791504 -0.0425201 -0.0667594 0 0.0644155 -0.0410272 -0.001245 187.423 0.0145695 
76 0.0657238 -0.0353075 -0.0554347 0 0.0542572 -0.0345575 -0.00026249 173.124 0.0119657 
80 0.0673007 -0.0361539 -0.0567651 0 0.0583058 -0.0371351 0.00193165 186.732 0.0132352 
84 0.070268 -0.0377486 -0.0592675 0 0.0620515 -0.0395218 -0.000174123 193.669 0.0136944 
88 0.0618975 -0.033252 -0.0522074 0 0.0536568 -0.0341751 0.00479281 170.144 0.0108047 
92 0.0621215 -0.0333715 -0.0523968 0 0.0543714 -0.0346292 0.00311383 166.932 0.0104065 
96 0.0609633 -0.0327498 -0.0514197 0 0.058571 -0.0373046 -0.00644815 178.355 0.0119183 
100 0.0496872 -0.0266929 -0.0419084 0 0.0447957 -0.028532 0.00328823 134.714 0.00774075 
104 0.0473095 -0.0254156 -0.0399028 0 0.047051 -0.0299685 0.00510798 139.758 0.00851622 
108 0.0497787 -0.0267414 -0.0419859 0 0.0424709 -0.0270503 -0.00143876 132.28 0.00565702 
112 0.054294 -0.0291671 -0.0457944 0 0.047832 -0.0304648 -0.00265346 145.46 0.00607862 
116 0.0419769 -0.0225504 -0.0354054 0 0.0428191 -0.0272723 -0.000866299 130.203 0.00591231 
120 0.00619803 -0.00619803 0 0 0 0.00160869 0.00157054 13.3388 -0.00144959 
124 0.00817878 -0.00817878 0 0 0 0.00103942 -0.000417059 7.81304 -0.00138517 
128 0.00753222 -0.00753222 0 0 0 0.00515194 0.00237491 18.3771 -0.000789699 
132 0.0082143 -0.0082143 0 0 0 0.00201029 -0.000565866 4.48814 -0.000331234 
