ITEM: TIMESTEP
19000
ITEM: NUMBER OF SURFS
134
ITEM: BOX BOUNDS oo ao pp
-10 10
0 10
-0.5 0.5
ITEM: SURFS id f_avg_pressure[1] f_avg_pressure[2] f_avg_pressure[3] f_avg_pressure[4] f_avg_shear[1] f_avg_shear[2] f_avg_shear[3] f_avg_heat_flux[*] f_avg_fdrag[*] 
1 17.2388 17.2275 0.623594 0 -0.000564551 0.0155964 0.00049492 13828 0.133469 
5 17.213 17.2129 -0.0571725 0 0.000564217 0.169869 0.0217499 14813.4 1.20076 
9 17.1907 17.1749 -0.736433 0 0.0149019 0.347539 0.00712738 15185.1 2.2649 
13 16.9578 16.9003 -1.39514 0 0.0440117 0.533142 0.00269979 15242.4 3.28133 
17 16.8001 16.6755 -2.04233 0 0.0858459 0.70093 0.000382005 15429.7 4.27999 
21 16.5592 16.3441 -2.6607 0 0.140359 0.862193 0.00671498 15362.8 5.22139 
25 16.2998 15.9719 -3.25259 0 0.208504 1.02386 0.00229964 15296.7 6.11218 
29 15.9034 15.446 -3.78665 0 0.293753 1.19824 0.00378678 15205.5 6.89813 
33 15.4729 14.8707 -4.2749 0 0.395138 1.37452 0.00351848 15008.3 7.60545 
37 15.0063 14.2472 -4.7124 0 0.496502 1.50109 -0.000344083 14945.8 8.21883 
41 14.3241 13.4112 -5.03183 0 0.620734 1.65442 -0.00938837 14715.5 8.64274 
45 13.5306 12.4706 -5.24974 0 0.787658 1.87106 -0.00251074 14749.8 8.9301 
49 11.8483 10.73 -5.02486 0 1.07582 2.29727 -0.000199807 14672.2 8.62086 
53 3.73625 1.76573 -3.29268 0 1.87631 1.00619 -0.00919075 7097.28 2.75731 
57 0.353552 -0.0983637 -0.339593 0 0.331111 -0.0959069 -0.00199357 895.36 0.177614 
61 0.110251 -0.0592278 -0.0929913 0 0.102773 -0.0654579 0.00201907 307.464 0.0330439 
65 0.0844466 -0.0453654 -0.0712265 0 0.0764889 -0.0487172 0.0044855 231.326 0.0225605 
69 0.09013 -0.0484178 -0.0760206 0 0.0773494 -0.049264 -0.000532331 229.099 0.0199891 
73 0.0777396 -0.0417624 -0.0655694 0 0.0681598 -0.0434122 -0.000144078 205.982 0.0173411 
77 0.0700692 -0.0376411 -0.0591002 0 0.0674744 -0.0429746 -0.00321809 204.525 0.0185848 
81 0.0683858 -0.0367374 -0.0576799 0 0.0640728 -0.0408091 -0.000380346 195.888 0.0160998 
85 0.0664784 -0.0357128 -0.0560711 0 0.0578827 -0.0368667 0.00251239 162.63 0.0123043 
89 0.0617161 -0.0331546 -0.0520542 0 0.0547385 -0.0348643 0.00361162 164.732 0.011246 
93 0.0674689 -0.0362458 -0.056906 0 0.063712 -0.0405808 -0.00394059 192.942 0.0133776 
97 0.0662789 -0.0356063 -0.0559025 0 0.0582747 -0.0371172 -0.00418575 184.684 0.0102707 
101 0.0621035 -0.0333623 -0.0523813 0 0.0594482 -0.0378634 -0.00262967 175.938 0.0109326 
105 0.0568407 -0.0305351 -0.0479424 0 0.0509927 -0.0324779 -0.00314192 150.883 0.00787879 
109 0.0486382 -0.0261287 -0.041024 0 0.0446748 -0.0284539 0.00061915 140.716 0.0065125 
113 0.0519449 -0.0279052 -0.043813 0 0.0493467 -0.0314297 -0.00327959 157.331 0.00680077 
117 0.00622869 -0.00622869 0 0 0 -0.00110951 0.000293105 11.214 -0.00175816 
121 0.00628353 -0.00628353 0 0 0 -7.55019e-06 0.000247953 9.49986 -0.00136824 
125 0.00579817 -0.00579817 0 0 0 0.000782269 -0.000389588 7.33083 -0.000888464 
129 0.00587915 -0.00587915 0 0 0 0.00204688 6.35586e-05 7.62257 -0.000521557 
133 0.00497007 -0.00497007 0 0 0 0.000860212 0.000379589 8.47312 -0.000120248 
2 17.2464 17.2405 0.453443 0 -0.000890846 0.0338711 -0.009521 14255.4 0.400741 
6 17.2146 17.2131 -0.227291 0 0.00250996 0.190083 0.012348 14961.4 1.46783 
10 17.1107 17.087 -0.901715 0 0.0204781 0.388049 0.00253319 15148.4 2.51899 
14 16.9329 16.8609 -1.55944 0 0.0520404 0.562669 -0.0144985 15330.2 3.5365 
18 16.7655 16.6202 -2.20244 0 0.0966878 0.729632 -0.004566 15333.4 4.52575 
22 16.4992 16.2577 -2.81214 0 0.154893 0.895478 0.00496476 15372.4 5.44961 
26 16.1838 15.8257 -3.38587 0 0.234295 1.0951 -0.00632816 15287.9 6.31032 
30 15.8213 15.3283 -3.91857 0 0.315737 1.23507 0.00786797 15178.6 7.09151 
34 15.3527 14.7126 -4.38704 0 0.416016 1.39517 -0.00839335 15044.1 7.76197 
38 14.8023 14.0069 -4.7869 0 0.518496 1.51717 -0.00242922 14759.9 8.31071 
42 14.2098 13.2543 -5.12285 0 0.662471 1.714 0.0178089 14832.6 8.77337 
46 13.1808 12.0971 -5.23386 0 0.826012 1.90917 -0.0062503 14510 8.8888 
50 10.672 9.37611 -5.09702 0 1.40737 2.58889 0.00778359 14868.8 7.83253 
54 2.29456 0.67521 -2.19297 0 1.5086 0.464495 -0.000973724 4901.95 1.66566 
58 0.169991 -0.077819 -0.151133 0 0.146523 -0.0754454 -0.000556041 439.164 0.0520546 
62 0.098044 -0.0526699 -0.0826953 0 0.0904404 -0.0576029 0.00324178 267.66 0.0283412 
66 0.0879955 -0.0472708 -0.0742204 0 0.0729794 -0.0464804 0.00449977 212.181 0.0184174 
70 0.0861844 -0.0462989 -0.0726922 0 0.076228 -0.048551 0.00343521 228.463 0.0204237 
74 0.0681132 -0.036591 -0.05745 0 0.0608483 -0.0387554 0.00297963 172.475 0.0157291 
78 0.0724843 -0.0389402 -0.0611362 0 0.0664136 -0.0423016 0.00242078 195.958 0.0168813 
82 0.0686014 -0.0368542 -0.0578612 0 0.0583835 -0.0371869 -4.39812e-05 178.096 0.0124974 
86 0.0606278 -0.03257 -0.0511364 0 0.0526753 -0.0335502 0.000273444 149.463 0.010988 
90 0.0612659 -0.0329126 -0.0516747 0 0.0510478 -0.0325133 -0.00143758 153.918 0.00929484 
94 0.062289 -0.033462 -0.0525378 0 0.053423 -0.0340258 -0.000536948 172.141 0.00955245 
98 0.0604733 -0.0324866 -0.0510063 0 0.0524991 -0.0334374 -0.00139242 163.074 0.0088972 
102 0.0529612 -0.028451 -0.0446702 0 0.0474863 -0.0302446 0.00487172 147.278 0.00781603 
106 0.0617 -0.0331456 -0.052041 0 0.0561443 -0.0357591 -6.59363e-05 181.426 0.00866207 
110 0.0483087 -0.0259516 -0.0407461 0 0.0430142 -0.0273962 0.00126205 130.814 0.00584661 
114 0.0511119 -0.0274578 -0.0431103 0 0.0455589 -0.0290174 -0.00193045 137.763 0.00558752 
118 0.00560994 -0.00560994 0 0 0 0.00113391 -1.5586e-05 8.3188 -0.00149302 
122 0.00796487 -0.00796487 0 0 0 0.000797857 0.000318861 9.96387 -0.00160588 
126 0.00497133 -0.00497133 0 0 0 0.000612881 0.00194325 6.38468 -0.00068158 
130 0.00557061 -0.00557061 0 0 0 -0.000218897 -0.00267777 6.97199 -0.000404333 
134 0.0068912 -0.0068912 0 0 0 -0.000376348 0.00306885 39.8852 -5.55763e-05 
3 17.2782 17.2759 0.283747 0 -0.00142315 0.0866487 -0.0104138 14560.4 0.669338 
7 17.1866 17.182 -0.396826 0 0.00563807 0.244121 -0.00269166 15040.5 1.7319 
11 17.0551 17.0216 -1.06704 0 0.0265928 0.424215 -0.00560603 15206.3 2.77418 
15 16.8802 16.7922 -1.72075 0 0.0609799 0.595084 -0.0143089 15274.7 3.7841 
19 16.6961 16.5289 -2.35676 0 0.110709 0.776446 -0.00244666 15250.4 4.76044 
23 16.425 16.1563 -2.95888 0 0.172712 0.943055 0.00732679 15316.8 5.67109 
27 16.0586 15.6692 -3.51486 0 0.246357 1.09825 -0.00205041 15154.9 6.49467 
31 15.7145 15.1857 -4.04245 0 0.340665 1.27973 0.00246283 15177.6 7.27108 
35 15.2622 14.582 -4.50555 0 0.436489 1.41268 -0.0112379 14999.8 7.92846 
39 14.6759 13.8397 -4.8831 0 0.556276 1.5766 -0.00964734 14765.3 8.44736 
43 14.004 13.0117 -5.17744 0 0.693234 1.74221 0.000745646 14726.7 8.8377 
47 12.9088 11.7962 -5.24263 0 0.888225 1.99856 -0.00228676 14637.4 8.90457 
51 7.98917 6.15419 -5.09438 0 1.94028 2.34392 -0.00646207 12652.2 5.97789 
55 1.3063 0.137107 -1.29908 0 1.01308 0.106922 -0.000423656 2988.77 0.880706 
59 0.117492 -0.0631176 -0.0990984 0 0.101606 -0.064715 -0.00157535 307.766 0.029861 
63 0.0993409 -0.0533659 -0.0837895 0 0.0893495 -0.0569071 0.00189051 264.95 0.0266951 
67 0.0864743 -0.0464547 -0.0729367 0 0.0807356 -0.051422 -0.00181624 241.463 0.0242669 
71 0.0798119 -0.0428763 -0.0673169 0 0.0719711 -0.0458408 -0.00153525 206.219 0.0196078 
75 0.0801051 -0.0430334 -0.0675644 0 0.0722901 -0.0460433 0.00103052 211.875 0.0187228 
79 0.0690058 -0.0370705 -0.058203 0 0.0586988 -0.0373863 -0.00083235 189.906 0.0131059 
83 0.0686355 -0.0368709 -0.057891 0 0.0628391 -0.0400223 0.00404103 196.036 0.0148537 
87 0.0628988 -0.0337897 -0.0530519 0 0.0544622 -0.034688 0.00030382 155.502 0.011122 
91 0.0566642 -0.0304405 -0.0477933 0 0.0506515 -0.032261 -0.000793046 155.433 0.010187 
95 0.0614739 -0.0330241 -0.0518503 0 0.0519983 -0.0331184 -0.00396928 168.508 0.00891908 
99 0.0574327 -0.0308532 -0.0484417 0 0.0481399 -0.0306609 0.000894439 149.837 0.00753853 
103 0.0494991 -0.0265912 -0.0417501 0 0.0450017 -0.0286622 -0.000445964 144.382 0.00740313 
107 0.0518789 -0.0278703 -0.0437569 0 0.0463538 -0.0295244 0.00287682 138.313 0.00680458 
111 0.0499929 -0.0268572 -0.0421662 0 0.0469357 -0.0298951 0.00374768 140.12 0.0067096 
115 0.0542004 -0.0291169 -0.0457153 0 0.0517718 -0.0329744 -0.000355395 156.911 0.00680078 
119 0.00578763 -0.00578763 0 0 0 0.000676555 0.000759357 9.30997 -0.00144696 
123 0.00657731 -0.00657731 0 0 0 -0.000735091 0.000496287 11.0513 -0.00122003 
127 0.00704597 -0.00704597 0 0 0 -0.00033936 -6.89455e-06 5.95556 -0.000852365 
131 0.00950609 -0.00950609 0 0 -3.13519e-18 0.00369769 -0.00145271 26.8211 -0.000536654 
4 17.2652 17.2648 0.112954 0 -0.000810711 0.123916 -0.0215611 14711.3 0.936597 
8 17.1856 17.1762 -0.566316 0 0.00984003 0.298445 0.00810239 15198.5 1.99812 
12 17.0404 16.9957 -1.23386 0 0.0340698 0.469289 -0.00396957 15171.2 3.03461 
16 16.8796 16.7738 -1.88651 0 0.0715803 0.636454 0.00806816 15302.9 4.04203 
20 16.6235 16.4331 -2.50869 0 0.123045 0.806002 -0.00135758 15350.2 4.9905 
24 16.3604 16.0629 -3.10604 0 0.19215 0.993704 -0.0141858 15372.4 5.89306 
28 15.9997 15.5765 -3.65552 0 0.273921 1.1672 -0.0101734 15218.2 6.70766 
32 15.5753 15.0108 -4.15497 0 0.362712 1.31038 0.012603 15083.7 7.42948 
36 15.1235 14.4047 -4.60708 0 0.465793 1.45636 -0.00938514 14974.8 8.0701 
40 14.4809 13.6076 -4.95268 0 0.581386 1.59737 0.00792224 14765.9 8.53306 
44 13.8048 12.7755 -5.23045 0 0.730485 1.78423 0.00582183 14800.1 8.90364 
48 12.496 11.3684 -5.18737 0 0.975806 2.13853 0.00631021 14654 8.84033 
52 5.6182 3.55789 -4.34806 0 2.05893 1.68476 -0.00386009 9808.85 4.20649 
56 0.693213 -0.061213 -0.690505 0 0.623407 -0.0552648 -0.00430237 1743.46 0.430529 
60 0.106994 -0.0574786 -0.0902441 0 0.0943113 -0.0600691 0.000886173 278.873 0.0282639 
64 0.0940804 -0.0505424 -0.079351 0 0.0848257 -0.0540294 -0.00046432 250.351 0.0251425 
68 0.0882477 -0.0474085 -0.0744318 0 0.0773696 -0.0492797 0.004891 230.352 0.0209547 
72 0.078569 -0.0422078 -0.0662691 0 0.0672223 -0.0428149 -0.000564128 199.658 0.016645 
76 0.067716 -0.0363777 -0.0571149 0 0.0548578 -0.03494 0.00128205 169.724 0.0116691 
80 0.0697425 -0.0374656 -0.0588247 0 0.0616446 -0.0392616 0.000914886 189.895 0.0144464 
84 0.0669942 -0.0359899 -0.0565062 0 0.0606078 -0.0386023 0.000810662 187.039 0.013872 
88 0.0628996 -0.0337902 -0.0530526 0 0.0554697 -0.0353298 0.00357895 174.16 0.0114796 
92 0.0593852 -0.0319016 -0.0500888 0 0.0524442 -0.0334018 0.00218952 167.487 0.0101799 
96 0.0586247 -0.0314934 -0.0494471 0 0.0580098 -0.0369471 -0.00270195 176.157 0.0122392 
100 0.0496487 -0.0266722 -0.0418758 0 0.0455093 -0.0289865 0.00411201 136.965 0.00805477 
104 0.0522907 -0.0280916 -0.0441042 0 0.0486654 -0.0309968 0.00658889 142.716 0.00809834 
108 0.0558701 -0.0300137 -0.0471237 0 0.0501937 -0.031969 9.39148e-06 153.311 0.00725762 
112 0.0537717 -0.0288865 -0.0453538 0 0.0512024 -0.0326115 -0.000820979 162.69 0.00726766 
116 0.0439188 -0.0235936 -0.0370432 0 0.0435383 -0.0277304 -0.00152036 140.812 0.00581783 
120 0.00641936 -0.00641936 0 0 0 0.0014859 5.82506e-05 12.819 -0.00150136 
124 0.00726696 -0.00726696 0 0 0 0.00102358 -0.00058298 10.0672 -0.00123074 
128 0.00731379 -0.00731379 0 0 0 0.0038999 0.00166794 13.8268 -0.000766798 
132 0.00638025 -0.00638025 0 0 0 0.00118755 0.000225453 3.87159 -0.000257278 
