ITEM: TIMESTEP
20000
ITEM: NUMBER OF SURFS
134
ITEM: BOX BOUNDS oo ao pp
-10 10
0 10
-0.5 0.5
ITEM: SURFS id f_avg_pressure[1] f_avg_pressure[2] f_avg_pressure[3] f_avg_pressure[4] f_avg_shear[1] f_avg_shear[2] f_avg_shear[3] f_avg_heat_flux[*] f_avg_fdrag[*] 
1 17.2138 17.2026 0.622691 0 -0.000472227 0.0130458 -0.000245913 13780.8 0.133276 
5 17.2151 17.2151 -0.0571796 0 0.000547582 0.16486 0.0251384 14795.1 1.20091 
9 17.1949 17.1792 -0.736613 0 0.0144742 0.337564 0.00941755 15171.4 2.26539 
13 16.9671 16.9096 -1.39592 0 0.0436077 0.528248 -0.0022231 15254.8 3.28306 
17 16.7993 16.6747 -2.04222 0 0.0859259 0.701583 -0.00360639 15432.2 4.2798 
21 16.5586 16.3435 -2.6606 0 0.140138 0.860836 0.00811574 15354.9 5.22113 
25 16.2941 15.9664 -3.25146 0 0.209322 1.02788 0.00411247 15287.9 6.1104 
29 15.8965 15.4393 -3.785 0 0.29333 1.19651 0.003866 15174 6.89499 
33 15.4648 14.8629 -4.27267 0 0.393875 1.37013 0.00456796 15015.2 7.60096 
37 15.0034 14.2444 -4.7115 0 0.495392 1.49774 -0.00344902 14931.9 8.21669 
41 14.3345 13.4209 -5.03547 0 0.620969 1.65505 -0.00677864 14716.9 8.64887 
45 13.5139 12.4552 -5.24326 0 0.786559 1.86845 4.12203e-05 14721.3 8.91898 
49 11.8556 10.7366 -5.02797 0 1.07668 2.29911 0.00396612 14681.4 8.62635 
53 3.73994 1.76747 -3.29593 0 1.8725 1.00415 -0.00635603 7083.91 2.75575 
57 0.354 -0.0984885 -0.340024 0 0.333012 -0.0964575 0.00174256 903.741 0.17897 
61 0.110284 -0.0592454 -0.0930189 0 0.10113 -0.0644117 0.000939078 303.712 0.0317842 
65 0.0850067 -0.0456663 -0.0716988 0 0.0752728 -0.0479426 0.0049071 226.581 0.0214609 
69 0.0868908 -0.0466777 -0.0732885 0 0.0754501 -0.0480544 -0.000647903 221.679 0.0198791 
73 0.0778437 -0.0418183 -0.0656572 0 0.0674273 -0.0429456 -0.000933739 204.732 0.0168231 
77 0.0712106 -0.0382543 -0.060063 0 0.0667189 -0.0424935 -0.0024477 205.85 0.0177323 
81 0.0692724 -0.0372137 -0.0584278 0 0.0639125 -0.040707 0.000681484 196.682 0.0157248 
85 0.0664223 -0.0356827 -0.0560238 0 0.0577038 -0.0367527 0.00182136 160.759 0.0122217 
89 0.063803 -0.0342757 -0.0538145 0 0.0562099 -0.0358015 0.00374412 166.604 0.0114285 
93 0.0654972 -0.0351865 -0.055243 0 0.0612873 -0.0390363 -0.00358658 189.919 0.0127125 
97 0.0642654 -0.0345246 -0.0542042 0 0.0565498 -0.0360185 -0.00360757 177.707 0.00997922 
101 0.0625841 -0.0336205 -0.0527867 0 0.058641 -0.0373493 -0.00386367 179.33 0.0104861 
105 0.0542036 -0.0291184 -0.0457182 0 0.0487599 -0.0310557 -0.00246067 144.51 0.00756446 
109 0.0508229 -0.0273023 -0.0428667 0 0.0475187 -0.0302652 0.000808628 152.201 0.00709903 
113 0.0522368 -0.028062 -0.0440591 0 0.0492069 -0.0313407 -0.00303122 161.176 0.00670671 
117 0.00594883 -0.00594883 0 0 0 -0.00109899 0.000199181 10.0588 -0.00167917 
121 0.00727508 -0.00727508 0 0 0 -0.00106787 0.000501499 11.2837 -0.00158415 
125 0.00613799 -0.00613799 0 0 0 0.000522329 -0.000362662 7.99207 -0.000940535 
129 0.00565809 -0.00565809 0 0 0 0.00162523 0.000242821 7.39893 -0.000501946 
133 0.00434127 -0.00434127 0 0 0 0.000633029 0.000344522 7.22774 -0.000105034 
2 17.2406 17.2347 0.453291 0 -0.000834044 0.0317114 -0.00199733 14220.2 0.400608 
6 17.1917 17.1902 -0.226988 0 0.00254915 0.193051 0.00985987 14918.1 1.46588 
10 17.1281 17.1043 -0.902631 0 0.0206554 0.391408 -0.00289548 15179.2 2.52157 
14 16.9355 16.8635 -1.55968 0 0.0521262 0.563597 -0.0133717 15332.2 3.53706 
18 16.7525 16.6073 -2.20073 0 0.0968572 0.73091 -0.00153875 15314.9 4.5223 
22 16.4982 16.2568 -2.81198 0 0.154358 0.892386 0.00223248 15360.2 5.44912 
26 16.1732 15.8153 -3.38363 0 0.233856 1.09305 -0.0101106 15264.8 6.30605 
30 15.801 15.3087 -3.91354 0 0.313597 1.2267 0.00876548 15137.5 7.08162 
34 15.3595 14.719 -4.38897 0 0.414804 1.3911 -0.00678296 15030.5 7.76467 
38 14.8044 14.0089 -4.78759 0 0.519655 1.52056 0.00501374 14770.8 8.31253 
42 14.1981 13.2433 -5.11861 0 0.661144 1.71057 0.0189259 14805.2 8.76563 
46 13.1807 12.097 -5.23382 0 0.826274 1.90978 -0.00385191 14491.6 8.88891 
50 10.6671 9.37183 -5.09469 0 1.4027 2.58031 0.00286026 14839.6 7.82604 
54 2.29747 0.676065 -2.19575 0 1.50714 0.464044 -0.00653801 4892.73 1.6652 
58 0.170031 -0.0778371 -0.151168 0 0.149017 -0.0767292 -0.000805068 439.384 0.0539299 
62 0.0997666 -0.0535953 -0.0841482 0 0.091886 -0.0585237 0.00218622 272.937 0.0287315 
66 0.0886832 -0.0476402 -0.0748005 0 0.0760367 -0.0484276 0.00325054 217.747 0.0203429 
70 0.0884801 -0.0475322 -0.0746285 0 0.0770845 -0.0490965 0.00170127 234.009 0.0201665 
74 0.068581 -0.0368423 -0.0578446 0 0.0617387 -0.0393225 0.0019184 173.367 0.0161435 
78 0.0718489 -0.0385988 -0.0606003 0 0.0664592 -0.0423306 0.00218465 200.954 0.0171191 
82 0.0686891 -0.0369014 -0.0579352 0 0.0597456 -0.0380544 -0.00108313 183.854 0.0132607 
86 0.0597019 -0.0320726 -0.0503554 0 0.0520111 -0.0331271 -0.000107576 151.419 0.0108968 
90 0.060333 -0.0324114 -0.0508879 0 0.051632 -0.0328853 -0.00083122 153.809 0.0098511 
94 0.0623572 -0.0334986 -0.0525952 0 0.0532002 -0.0338839 -2.55751e-05 168.864 0.00942834 
98 0.0618134 -0.0332065 -0.0521366 0 0.0545571 -0.0347482 0.000269215 165.506 0.00949211 
102 0.0532125 -0.028586 -0.0448822 0 0.0471047 -0.0300016 0.00432355 145.082 0.00760393 
106 0.0614229 -0.0329967 -0.0518072 0 0.0561845 -0.0357846 -0.000880411 181.682 0.00873326 
110 0.0478284 -0.0256936 -0.0403409 0 0.0429956 -0.0273844 -0.000146789 126.433 0.00592867 
114 0.0496155 -0.0266539 -0.0418481 0 0.0457752 -0.0291552 -0.00166243 137.025 0.00590242 
118 0.00576955 -0.00576955 0 0 0 0.00155145 -0.000353264 8.85068 -0.0015355 
122 0.00743368 -0.00743368 0 0 0 0.000863953 0.000332848 9.2628 -0.00149878 
126 0.00530495 -0.00530495 0 0 0 0.000744587 0.00167393 7.64994 -0.000727319 
130 0.00522765 -0.00522765 0 0 0 0.000274536 -0.00235332 6.53602 -0.00037944 
134 0.00753967 -0.00753967 0 0 0 -0.000406156 0.00176754 34.1902 -6.0806e-05 
3 17.2531 17.2508 0.283334 0 -0.00147293 0.0896792 -0.0113025 14503.5 0.668362 
7 17.1834 17.1788 -0.396752 0 0.00566066 0.245099 -0.00220602 15015.3 1.73158 
11 17.0734 17.04 -1.06819 0 0.026547 0.423483 -0.00488753 15217.7 2.77715 
15 16.8832 16.7953 -1.72106 0 0.0615831 0.600971 -0.0137486 15299.4 3.78491 
19 16.6957 16.5286 -2.35671 0 0.111612 0.782778 -0.00228531 15243.2 4.76059 
23 16.424 16.1553 -2.9587 0 0.172039 0.939381 0.000376904 15295.2 5.67052 
27 16.0562 15.6669 -3.51434 0 0.246436 1.09861 -0.00242492 15145.4 6.49375 
31 15.7113 15.1826 -4.04162 0 0.341107 1.28139 -0.000625807 15167 7.26984 
35 15.2659 14.5856 -4.50664 0 0.435124 1.40826 -0.00860695 14986.1 7.9296 
39 14.672 13.836 -4.88179 0 0.557931 1.58129 -0.00378876 14758.2 8.44615 
43 13.9929 13.0014 -5.17334 0 0.693288 1.74234 0.00144222 14715.3 8.83109 
47 12.9044 11.7923 -5.24087 0 0.887777 1.99755 0.0023897 14599.9 8.90147 
51 7.98698 6.15251 -5.09299 0 1.93714 2.34014 -0.00822216 12651.2 5.97434 
55 1.30636 0.137113 -1.29914 0 1.00906 0.106498 -0.00473252 2961.13 0.877632 
59 0.118029 -0.0634064 -0.0995518 0 0.100787 -0.0641934 0.00123302 308.72 0.0290015 
63 0.100761 -0.0541286 -0.084987 0 0.0895286 -0.0570212 0.00238172 265.195 0.0262622 
67 0.0845003 -0.0453943 -0.0712718 0 0.0798738 -0.050873 -0.00251676 238.431 0.0244075 
71 0.077406 -0.0415839 -0.0652877 0 0.070107 -0.0446534 -0.00201038 201.059 0.0192225 
75 0.0795755 -0.0427489 -0.0671177 0 0.0722366 -0.0460093 0.00117912 210.404 0.0188707 
79 0.067644 -0.0363389 -0.0570543 0 0.0590071 -0.0375827 -0.00215035 186.735 0.013736 
83 0.066536 -0.035743 -0.0561202 0 0.060174 -0.0383249 0.00361742 187.142 0.0139744 
87 0.0631099 -0.0339031 -0.05323 0 0.0545937 -0.0347717 -0.000204516 160.878 0.0111317 
91 0.0579949 -0.0311554 -0.0489157 0 0.0520818 -0.033172 -0.00126627 157.953 0.0105477 
95 0.0602437 -0.0323633 -0.0508127 0 0.052578 -0.0334876 -0.00386513 167.2 0.0095022 
99 0.0590898 -0.0317434 -0.0498394 0 0.0501409 -0.0319354 0.00102401 154.19 0.00802293 
103 0.0500792 -0.0269028 -0.0422394 0 0.0457245 -0.0291225 -0.00113125 146.103 0.00756846 
107 0.0548096 -0.0294447 -0.0462288 0 0.0499031 -0.031785 0.00114018 149.473 0.00753161 
111 0.0491505 -0.0264047 -0.0414556 0 0.0462287 -0.0294448 0.00240187 139.725 0.00662459 
115 0.053824 -0.0289147 -0.0453978 0 0.0525325 -0.0334589 -0.000152889 158.287 0.00708985 
119 0.00626238 -0.00626238 0 0 0 0.000929677 0.00017862 9.54399 -0.00156565 
123 0.00689218 -0.00689218 0 0 0 -0.000751729 0.000113474 11.3966 -0.00127843 
127 0.00658985 -0.00658985 0 0 0 -0.000371369 -0.000108479 5.74434 -0.000797188 
131 0.00912825 -0.00912825 0 0 -2.98889e-18 0.00290999 -0.00104991 23.408 -0.000515324 
4 17.256 17.2557 0.112894 0 -0.000795618 0.121609 -0.0193305 14677.8 0.936103 
8 17.1788 17.1694 -0.566093 0 0.00963807 0.29232 0.00731515 15170.9 1.9973 
12 17.0475 17.0027 -1.23438 0 0.0342141 0.471276 -0.00179482 15173.5 3.0359 
16 16.8707 16.765 -1.88551 0 0.0710164 0.631441 0.00410167 15285.1 4.03977 
20 16.6193 16.429 -2.50806 0 0.124056 0.812626 0.000890791 15353 4.98955 
24 16.3498 16.0524 -3.10401 0 0.190929 0.987391 -0.0160017 15349.3 5.88881 
28 15.9999 15.5767 -3.65558 0 0.272656 1.16181 -0.00939352 15209 6.70723 
32 15.5661 15.002 -4.15253 0 0.361433 1.30576 0.0110874 15057.3 7.42459 
36 15.1151 14.3967 -4.60454 0 0.465103 1.45421 -0.00417013 14961.8 8.06541 
40 14.4783 13.6052 -4.95179 0 0.581579 1.5979 0.00544763 14743.3 8.53171 
44 13.7786 12.7513 -5.22052 0 0.731711 1.78723 0.0055962 14757.8 8.88846 
48 12.4939 11.3666 -5.18653 0 0.974374 2.13539 0.00134442 14649.1 8.83798 
52 5.61465 3.55564 -4.34531 0 2.05083 1.67814 -0.00144373 9780.1 4.19874 
56 0.690733 -0.060994 -0.688035 0 0.622691 -0.0552013 0.00112077 1732.78 0.430148 
60 0.107148 -0.057561 -0.0903734 0 0.0922151 -0.058734 -0.000161275 276.432 0.0265921 
64 0.0937796 -0.0503808 -0.0790973 0 0.0838855 -0.0534306 -0.000483063 251.063 0.0245715 
68 0.0881732 -0.0473685 -0.0743689 0 0.0763971 -0.0486603 0.00591195 226.805 0.0203025 
72 0.0780295 -0.041918 -0.065814 0 0.0674668 -0.0429706 -0.000893764 202.125 0.0170005 
76 0.0692204 -0.0371859 -0.0583839 0 0.0580143 -0.0369505 0.000626193 178.669 0.013152 
80 0.0730678 -0.0392519 -0.0616294 0 0.0647034 -0.0412098 -0.000217612 197.781 0.0152066 
84 0.0664131 -0.0356777 -0.056016 0 0.0602078 -0.0383475 -0.00037321 183.746 0.0138225 
88 0.0613055 -0.0329339 -0.051708 0 0.0543144 -0.0345939 0.00341882 170.1 0.0113213 
92 0.0619845 -0.0332979 -0.0522812 0 0.0533919 -0.0340054 0.00389102 171.616 0.00995759 
96 0.0597169 -0.0320802 -0.0503684 0 0.0594956 -0.0378934 -0.00106152 182.403 0.0126542 
100 0.0493672 -0.026521 -0.0416385 0 0.0450215 -0.0286758 0.00363054 135.299 0.00791082 
104 0.0513374 -0.0275795 -0.0433001 0 0.04701 -0.0299424 0.00478026 138.012 0.00764834 
108 0.0582109 -0.0312712 -0.0490981 0 0.0520788 -0.0331697 0.00048312 160.769 0.00748336 
112 0.0535781 -0.0287825 -0.0451905 0 0.0516443 -0.032893 -0.00267507 162.415 0.00744543 
116 0.0446061 -0.0239628 -0.037623 0 0.0457613 -0.0291462 -0.00300617 145.798 0.00635855 
120 0.0068644 -0.0068644 0 0 0 0.000895058 0.000358972 13.2779 -0.00160544 
124 0.00753308 -0.00753308 0 0 0 0.00151598 -0.00045411 10.2024 -0.00127581 
128 0.00683766 -0.00683766 0 0 0 0.00318047 0.00108979 14.0414 -0.000716879 
132 0.0062319 -0.0062319 0 0 0 0.000983255 0.000212897 3.20076 -0.000251296 
