ITEM: TIMESTEP
23000
ITEM: NUMBER OF SURFS
134
ITEM: BOX BOUNDS oo ao pp
-10 10
0 10
-0.5 0.5
ITEM: SURFS id f_avg_pressure[1] f_avg_pressure[2] f_avg_pressure[3] f_avg_pressure[4] f_avg_shear[1] f_avg_shear[2] f_avg_shear[3] f_avg_heat_flux[*] f_avg_fdrag[*] 
1 17.2505 17.2392 0.624017 0 -0.000383183 0.0105859 0.00144262 13832 0.133561 
5 17.2083 17.2082 -0.0571568 0 0.00055913 0.168337 0.0185988 14789.2 1.20043 
9 17.1677 17.1519 -0.735447 0 0.0146765 0.342282 0.0071129 15136.7 2.26183 
13 16.9652 16.9077 -1.39576 0 0.0426627 0.5168 -0.000394157 15207.6 3.2825 
17 16.7853 16.6608 -2.04052 0 0.0845382 0.690253 0.00293793 15399.2 4.27589 
21 16.5602 16.345 -2.66086 0 0.140008 0.860036 0.0120753 15318.3 5.22159 
25 16.2771 15.9497 -3.24806 0 0.209411 1.02832 -0.00195618 15250.4 6.10413 
29 15.8917 15.4346 -3.78387 0 0.293113 1.19563 0.00433358 15162.9 6.89287 
33 15.457 14.8554 -4.2705 0 0.3914 1.36152 0.00302832 14985.4 7.59597 
37 14.9833 14.2254 -4.7052 0 0.494122 1.49389 -0.00629302 14917.8 8.20536 
41 14.3291 13.4159 -5.03359 0 0.618125 1.64747 -0.00555781 14682.6 8.64402 
45 13.5122 12.4537 -5.2426 0 0.786499 1.86831 0.00205462 14683.6 8.9179 
49 11.8388 10.7214 -5.02086 0 1.07271 2.29064 0.00200399 14631.9 8.61236 
53 3.74266 1.76876 -3.29833 0 1.86581 1.00056 -0.00839651 7084.07 2.75166 
57 0.357692 -0.0995156 -0.34357 0 0.333132 -0.0964924 0.00261203 924.135 0.178278 
61 0.110146 -0.0591711 -0.0929022 0 0.0991551 -0.0631536 0.000757643 296.258 0.0303417 
65 0.0854551 -0.0459072 -0.072077 0 0.0758928 -0.0483375 0.0044361 225.635 0.0217357 
69 0.0864778 -0.0464558 -0.0729402 0 0.0733655 -0.0467267 -0.000717943 217.193 0.0185921 
73 0.0772037 -0.0414745 -0.0651174 0 0.0681965 -0.0434356 -0.00133757 204.374 0.0175543 
77 0.0703212 -0.0377765 -0.0593128 0 0.0659541 -0.0420064 -0.00219513 200.335 0.0175534 
81 0.0694025 -0.0372836 -0.0585375 0 0.0632569 -0.0402894 0.000636024 195.443 0.0152975 
85 0.0674873 -0.0362548 -0.0569221 0 0.0602478 -0.038373 0.00363475 171.517 0.0133161 
89 0.0660057 -0.0354591 -0.0556724 0 0.0589855 -0.0375693 0.00369849 176.377 0.0122581 
93 0.0650969 -0.0349715 -0.0549054 0 0.0589156 -0.0375258 9.41383e-05 179.691 0.0116621 
97 0.0650555 -0.034949 -0.0548706 0 0.0581519 -0.037039 -0.00366244 176.659 0.0105128 
101 0.0600637 -0.0322666 -0.0506608 0 0.05438 -0.0346354 -0.00284883 168.404 0.00926777 
105 0.05491 -0.0294979 -0.046314 0 0.048693 -0.0310131 0.000403406 144.344 0.00739253 
109 0.0521929 -0.0280383 -0.0440222 0 0.0489446 -0.0311734 0.000476806 154.112 0.00734129 
113 0.049158 -0.026408 -0.0414624 0 0.0449813 -0.0286493 -0.00144728 144.725 0.00589102 
117 0.00533403 -0.00533403 0 0 0 -0.00113606 -7.15012e-05 8.57245 -0.00150563 
121 0.00722684 -0.00722684 0 0 0 -0.000815072 -0.000237465 11.1532 -0.00157365 
125 0.00584853 -0.00584853 0 0 0 0.000478906 -0.000612542 8.7418 -0.00089618 
129 0.00628595 -0.00628595 0 0 0 -0.000302682 0.0007913 9.64164 -0.000557646 
133 0.00385666 -0.00385666 0 0 0 0.000603691 0.000651799 5.52197 -9.33097e-05 
2 17.2426 17.2367 0.453343 0 -0.00091627 0.0348377 0.00238835 14237.3 0.400652 
6 17.1934 17.1919 -0.227011 0 0.00261872 0.19832 0.0069045 14893.5 1.46603 
10 17.1176 17.0938 -0.902077 0 0.0204918 0.388308 -0.0059467 15162.2 2.52001 
14 16.9461 16.8741 -1.56066 0 0.0518169 0.560252 -0.00949317 15282.6 3.53921 
18 16.7555 16.6103 -2.20113 0 0.0970616 0.732453 -0.0101672 15306.5 4.52318 
22 16.5012 16.2597 -2.81248 0 0.154105 0.89092 0.00142825 15343.7 5.45 
26 16.1836 15.8255 -3.38582 0 0.232316 1.08585 -0.00772902 15260.1 6.30945 
30 15.7964 15.3043 -3.91242 0 0.314381 1.22977 -0.000549224 15118.8 7.07998 
34 15.3637 14.7231 -4.39018 0 0.412066 1.38192 -0.0106062 15023.1 7.76534 
38 14.8285 14.0317 -4.79538 0 0.520209 1.52218 0.00970734 14791.6 8.32589 
42 14.1778 13.2244 -5.11131 0 0.659247 1.70566 0.00928446 14752.1 8.75251 
46 13.1913 12.1068 -5.23804 0 0.821899 1.89967 -0.00638337 14500.5 8.89262 
50 10.653 9.35948 -5.08797 0 1.39907 2.57362 0.00373784 14796.8 7.81442 
54 2.29904 0.676526 -2.19724 0 1.51376 0.466084 -0.00794931 4889.46 1.6706 
58 0.16906 -0.0773925 -0.150305 0 0.14931 -0.0768803 -0.00154173 435.175 0.054489 
62 0.100488 -0.0539828 -0.0847567 0 0.0918793 -0.0585194 0.00237961 270.787 0.0284357 
66 0.0865188 -0.0464776 -0.072975 0 0.0742162 -0.0472681 0.00279602 214.904 0.0198717 
70 0.0865808 -0.0465119 -0.0730265 0 0.0756712 -0.0481963 0.00200788 234.434 0.0198984 
74 0.0715385 -0.0384311 -0.0603391 0 0.0638217 -0.0406492 0.00115679 184.59 0.016464 
78 0.0748882 -0.0402316 -0.0631638 0 0.0696029 -0.044333 0.00240907 210.45 0.0180475 
82 0.067428 -0.0362238 -0.0568715 0 0.0569969 -0.0363037 3.02786e-05 176.388 0.0120584 
86 0.0589376 -0.031662 -0.0497108 0 0.052298 -0.0333099 -0.00035144 155.4 0.011278 
90 0.0614822 -0.0330287 -0.0518571 0 0.0521769 -0.0332324 -0.00125479 158.764 0.009814 
94 0.0583564 -0.0313494 -0.0492208 0 0.0512993 -0.0326732 0.000320931 159.085 0.00954715 
98 0.0616441 -0.0331155 -0.0519938 0 0.0550759 -0.0350786 0.00104208 166.606 0.00976317 
102 0.0540299 -0.0290251 -0.0455716 0 0.0473549 -0.0301609 0.00126824 145.301 0.00752635 
106 0.0623534 -0.0334966 -0.0525921 0 0.0552843 -0.0352113 0.00100835 177.412 0.00820598 
110 0.0474436 -0.0254869 -0.0400164 0 0.0440497 -0.0280557 -0.00156945 131.843 0.00636067 
114 0.0500939 -0.0269109 -0.0422516 0 0.0470225 -0.0299496 -0.0012424 143.962 0.00620811 
118 0.00552686 -0.00552686 0 0 0 0.000756455 -0.000639642 8.63999 -0.00147091 
122 0.00733717 -0.00733717 0 0 0 0.000190681 -5.88696e-05 9.91397 -0.00147932 
126 0.00570135 -0.00570135 0 0 0 0.00108876 0.00134793 7.75756 -0.000781666 
130 0.00449517 -0.00449517 0 0 0 0.000202198 -0.00132874 5.6339 -0.000326274 
134 0.00661928 -0.00661928 0 0 0 -0.000388287 0.001167 24.2919 -5.33833e-05 
3 17.2558 17.2535 0.283378 0 -0.0015363 0.0935376 -0.00403923 14523.7 0.668464 
7 17.1797 17.1751 -0.396666 0 0.00555433 0.240495 -0.00300646 15009.1 1.7312 
11 17.0537 17.0203 -1.06695 0 0.0266872 0.425721 -0.00316698 15181.6 2.77397 
15 16.8838 16.7959 -1.72112 0 0.0621009 0.606024 -0.00816947 15268.4 3.78517 
19 16.6832 16.5162 -2.35494 0 0.110864 0.777538 0.00299837 15220.7 4.75683 
23 16.4121 16.1436 -2.95655 0 0.171841 0.938298 0.00240386 15240 5.66637 
27 16.0507 15.6615 -3.51315 0 0.246787 1.10017 -0.00307413 15138.4 6.49173 
31 15.6916 15.1635 -4.03655 0 0.341916 1.28443 0.00352629 15128 7.26129 
35 15.2636 14.5833 -4.50595 0 0.435352 1.409 -0.00784168 14970.8 7.92853 
39 14.665 13.8294 -4.87948 0 0.554357 1.57116 0.0053623 14742.8 8.44022 
43 13.9738 12.9837 -5.16628 0 0.692578 1.74056 -0.00258447 14657.1 8.81919 
47 12.8902 11.7793 -5.2351 0 0.884524 1.99023 -0.00522113 14557.2 8.89008 
51 7.98557 6.15142 -5.09209 0 1.9366 2.33949 -0.00456022 12623.1 5.97314 
55 1.30476 0.136946 -1.29756 0 1.01356 0.106972 -0.00418571 2958.45 0.880949 
59 0.116599 -0.062638 -0.0983454 0 0.0988245 -0.0629431 0.00204362 299.587 0.0280747 
63 0.0999927 -0.0537161 -0.0843393 0 0.0868386 -0.0553079 -0.000567401 256.665 0.0245726 
67 0.0862836 -0.0463523 -0.0727759 0 0.0794085 -0.0505767 -0.00108259 239.738 0.0234 
71 0.0757023 -0.0406686 -0.0638506 0 0.0686714 -0.0437391 -0.00107153 195.773 0.0188719 
75 0.0796393 -0.0427832 -0.0671715 0 0.0699269 -0.0445381 4.87205e-05 210.807 0.0173707 
79 0.0698763 -0.0375381 -0.0589372 0 0.0613858 -0.0390977 -0.00154286 191.386 0.0144507 
83 0.0667956 -0.0358825 -0.0563391 0 0.0599259 -0.0381669 0.00282029 185.459 0.0137527 
87 0.0634423 -0.0340817 -0.0535103 0 0.05523 -0.035177 -0.00286488 168.21 0.011378 
91 0.058098 -0.0312108 -0.0490027 0 0.0531171 -0.0338314 -0.000832891 159.827 0.0110416 
95 0.0577504 -0.0310239 -0.0487097 0 0.0502832 -0.0320261 -0.00394955 155.774 0.00905312 
99 0.0601118 -0.0322924 -0.0507014 0 0.0503281 -0.0320546 0.000836203 158.021 0.00786515 
103 0.0512205 -0.0275159 -0.043202 0 0.0472737 -0.0301093 -0.000855046 147.424 0.00794488 
107 0.0560616 -0.0301173 -0.0472848 0 0.0519109 -0.0330639 -0.000476892 149.944 0.00802316 
111 0.0500641 -0.0268954 -0.0422262 0 0.0458901 -0.0292291 0.00138285 136.819 0.00634742 
115 0.0520431 -0.027958 -0.0438957 0 0.0485666 -0.0309329 0.00269723 149.519 0.0061865 
119 0.00794714 -0.00794714 0 0 0 -0.00129692 -0.000658576 15.0062 -0.00198686 
123 0.0072849 -0.0072849 0 0 0 -8.57877e-06 -0.000148711 11.9696 -0.00135128 
127 0.00588915 -0.00588915 0 0 0 3.14454e-05 7.65894e-05 6.15997 -0.000712423 
131 0.00912416 -0.00912416 0 0 -2.99697e-18 0.00230892 0.000306954 18.9229 -0.000515093 
4 17.2558 17.2554 0.112892 0 -0.000792205 0.121087 -0.0200116 14692.1 0.93609 
8 17.1922 17.1828 -0.566534 0 0.00982715 0.298055 0.00956617 15167.4 1.99888 
12 17.0353 16.9906 -1.23349 0 0.0340893 0.469558 -0.0021624 15112.9 3.03371 
16 16.8745 16.7688 -1.88594 0 0.0712502 0.633519 -0.00301382 15243.5 4.04074 
20 16.6296 16.4392 -2.50961 0 0.124404 0.814906 -0.0034896 15339.8 4.99272 
24 16.3365 16.0394 -3.10149 0 0.19193 0.992566 -0.00588771 15313.2 5.88445 
28 16.011 15.5875 -3.65811 0 0.271799 1.15816 -0.012074 15198.7 6.71143 
32 15.554 14.9903 -4.14929 0 0.362147 1.30834 0.00306654 15032 7.41929 
36 15.1168 14.3983 -4.60506 0 0.463171 1.44816 -0.00183202 14957.5 8.06525 
40 14.5023 13.6277 -4.96001 0 0.583258 1.60252 -0.00260899 14764.6 8.54631 
44 13.768 12.7415 -5.21653 0 0.734623 1.79434 0.00614134 14731.3 8.88395 
48 12.4908 11.3637 -5.18522 0 0.973395 2.13325 0.00164578 14632.3 8.83523 
52 5.63065 3.56577 -4.35769 0 2.06262 1.68779 0.00207936 9841.78 4.21516 
56 0.686307 -0.0606032 -0.683626 0 0.613641 -0.054399 0.0025299 1706.39 0.423517 
60 0.107394 -0.0576933 -0.0905812 0 0.0927931 -0.0591022 0.0011426 279.461 0.0269341 
64 0.0951898 -0.0511384 -0.0802868 0 0.0861186 -0.0548529 -0.000424914 265.06 0.0256536 
68 0.0869041 -0.0466867 -0.0732985 0 0.0749283 -0.0477248 0.00529932 223.064 0.0197521 
72 0.0807426 -0.0433755 -0.0681024 0 0.0726826 -0.0462927 -0.00245796 220.406 0.0195014 
76 0.0709924 -0.0381378 -0.0598784 0 0.0609942 -0.0388484 -0.00129349 191.071 0.0144325 
80 0.0732898 -0.0393712 -0.0618167 0 0.0653308 -0.0416094 -0.000149722 199.365 0.0155102 
84 0.0675496 -0.0362883 -0.0569746 0 0.0609567 -0.0388245 -0.00127972 187.835 0.0139004 
88 0.0618023 -0.0332008 -0.0521271 0 0.0539004 -0.0343303 0.00264914 169.057 0.0109608 
92 0.0623055 -0.0334704 -0.0525519 0 0.053291 -0.0339411 0.00321936 163.962 0.00982214 
96 0.0629536 -0.0338189 -0.0530983 0 0.0610015 -0.0388526 -5.08005e-06 185.576 0.0125467 
100 0.0508805 -0.027334 -0.0429148 0 0.0457163 -0.0291184 0.00273973 139.221 0.0078603 
104 0.0534884 -0.028735 -0.0451144 0 0.0480717 -0.0306186 0.00318075 141.372 0.00761137 
108 0.0576627 -0.0309767 -0.0486357 0 0.0517936 -0.0329881 0.000149789 156.181 0.0074867 
112 0.0530898 -0.0285201 -0.0447787 0 0.0501351 -0.0319317 -0.00328024 161.778 0.00703935 
116 0.0461418 -0.0247878 -0.0389183 0 0.0440028 -0.0280262 -0.00307438 143.008 0.00560495 
120 0.00590656 -0.00590656 0 0 0 0.000581867 0.000141199 10.7324 -0.00138142 
124 0.00760076 -0.00760076 0 0 0 0.00146459 0.000350746 10.7841 -0.00128727 
128 0.00671539 -0.00671539 0 0 0 0.00304642 0.00106678 11.6543 -0.00070406 
132 0.00859279 -0.00859279 0 0 0 0.00327445 0.0021109 10.0822 -0.000346497 
