ITEM: TIMESTEP
22000
ITEM: NUMBER OF SURFS
134
ITEM: BOX BOUNDS oo ao pp
-10 10
0 10
-0.5 0.5
ITEM: SURFS id f_avg_pressure[1] f_avg_pressure[2] f_avg_pressure[3] f_avg_pressure[4] f_avg_shear[1] f_avg_shear[2] f_avg_shear[3] f_avg_heat_flux[*] f_avg_fdrag[*] 
1 17.2499 17.2386 0.623996 0 -0.000293819 0.0081171 0.00356458 13838.5 0.133557 
5 17.2163 17.2162 -0.0571834 0 0.000556259 0.167473 0.0196101 14791.4 1.20099 
9 17.177 17.1612 -0.735845 0 0.0146293 0.341181 0.00997859 15149.9 2.26305 
13 16.9726 16.915 -1.39636 0 0.043018 0.521104 0.000539638 15225.3 3.284 
17 16.7836 16.6591 -2.04031 0 0.085359 0.696954 0.0026849 15396.7 4.27567 
21 16.5587 16.3436 -2.66062 0 0.140096 0.860575 0.0110221 15333.2 5.22115 
25 16.2916 15.964 -3.25097 0 0.21003 1.03136 0.00218217 15282.4 6.10975 
29 15.9052 15.4477 -3.78708 0 0.293232 1.19611 0.00322399 15188.8 6.89866 
33 15.4654 14.8634 -4.27282 0 0.392409 1.36503 0.00303708 14999 7.60048 
37 14.9891 14.2308 -4.707 0 0.494394 1.49472 -0.00291978 14912.5 8.20855 
41 14.331 13.4177 -5.03428 0 0.618715 1.64904 -0.00823921 14691.5 8.64551 
45 13.5133 12.4547 -5.24305 0 0.787763 1.87131 0.00356402 14692.2 8.91946 
49 11.8448 10.7268 -5.02338 0 1.07367 2.2927 0.00254494 14648.7 8.61699 
53 3.74889 1.77171 -3.30382 0 1.87187 1.00381 -0.0107138 7102.7 2.75848 
57 0.358364 -0.0997026 -0.344216 0 0.332247 -0.0962359 0.00173375 918.074 0.17746 
61 0.110148 -0.0591722 -0.092904 0 0.0991912 -0.0631767 0.00149165 294.691 0.0303682 
65 0.0864308 -0.0464314 -0.0729001 0 0.0781019 -0.0497445 0.00521917 232.05 0.022957 
69 0.0857401 -0.0460595 -0.0723179 0 0.0739612 -0.0471061 0.000109315 217.804 0.0192775 
73 0.0775721 -0.0416724 -0.0654281 0 0.0684407 -0.0435911 -0.0010368 205.997 0.0175847 
77 0.0697907 -0.0374915 -0.0588654 0 0.0656933 -0.0418402 -0.0019886 199.394 0.0175685 
81 0.0696307 -0.0374062 -0.05873 0 0.0638156 -0.0406453 0.000481663 194.763 0.0155544 
85 0.0677737 -0.0364087 -0.0571637 0 0.0600551 -0.0382503 0.0028619 170.111 0.0131237 
89 0.0655824 -0.0352316 -0.0553153 0 0.0585239 -0.0372753 0.003818 176.161 0.0121361 
93 0.0658853 -0.035395 -0.0555704 0 0.0594079 -0.0378393 -0.00128491 183.612 0.0116956 
97 0.0648534 -0.0348405 -0.0547001 0 0.0574686 -0.0366038 -0.00417425 174.586 0.0102524 
101 0.0611602 -0.0328556 -0.0515857 0 0.0561361 -0.0357539 -0.00208396 172.892 0.00975689 
105 0.0558123 -0.0299826 -0.047075 0 0.0485636 -0.0309307 -5.56983e-05 143.702 0.00715606 
109 0.0518312 -0.027844 -0.0437171 0 0.0484051 -0.0308298 0.00074251 153.131 0.00722009 
113 0.0497991 -0.0267524 -0.0420031 0 0.046558 -0.0296535 -0.00191755 151.153 0.00628188 
117 0.00520765 -0.00520765 0 0 0 -0.00100501 -2.41413e-05 8.76192 -0.00146996 
121 0.00742652 -0.00742652 0 0 0 -0.00123898 0.000116686 11.5671 -0.00161713 
125 0.00549812 -0.00549812 0 0 0 0.000340374 -0.000442768 7.00042 -0.000842486 
129 0.00611948 -0.00611948 0 0 0 0.00062749 0.00102261 9.19902 -0.000542878 
133 0.00367625 -0.00367625 0 0 0 0.000285633 0.000496833 5.84654 -8.89447e-05 
2 17.2495 17.2436 0.453525 0 -0.000907177 0.034492 0.00167713 14258.2 0.400813 
6 17.1877 17.1862 -0.226935 0 0.00260349 0.197166 0.00920537 14891.1 1.46554 
10 17.1119 17.0881 -0.901773 0 0.0204719 0.38793 -0.00607218 15142.6 2.51916 
14 16.9431 16.8711 -1.56038 0 0.0516421 0.558362 -0.0102112 15288 3.53854 
18 16.7569 16.6117 -2.20131 0 0.096708 0.729784 -0.0065058 15310.6 4.52344 
22 16.5026 16.2612 -2.81273 0 0.154261 0.891827 0.00370734 15348.8 5.45053 
26 16.1943 15.8359 -3.38804 0 0.233681 1.09224 -0.00618865 15268.7 6.31408 
30 15.8025 15.3101 -3.91391 0 0.314367 1.22971 0.00145878 15125.4 7.08263 
34 15.3597 14.7193 -4.38905 0 0.412269 1.3826 -0.0108355 15009.2 7.7635 
38 14.8149 14.0188 -4.79098 0 0.519008 1.51867 0.0105494 14766.1 8.31783 
42 14.1806 13.227 -5.1123 0 0.660211 1.70816 0.0105446 14766.8 8.75473 
46 13.1964 12.1114 -5.24004 0 0.824563 1.90582 -0.0066015 14517.5 8.89763 
50 10.6422 9.34999 -5.08282 0 1.39858 2.57272 0.00434423 14797.5 7.80718 
54 2.29776 0.676149 -2.19602 0 1.50996 0.464914 -0.00828401 4889.01 1.66742 
58 0.171417 -0.0784718 -0.152401 0 0.150677 -0.0775841 -0.00146534 442.706 0.0547069 
62 0.10067 -0.0540809 -0.0849105 0 0.0923267 -0.0588043 0.00189632 274.313 0.0286978 
66 0.0874984 -0.0470038 -0.0738012 0 0.0750162 -0.0477776 0.00393947 217.727 0.0200678 
70 0.0864388 -0.0464356 -0.0729068 0 0.0755244 -0.0481028 0.00171907 233.729 0.0198502 
74 0.0714901 -0.0384051 -0.0602983 0 0.0631407 -0.0402154 0.000995493 180.594 0.0160392 
78 0.0743668 -0.0399515 -0.062724 0 0.0693341 -0.0441618 0.00222065 210.145 0.0180544 
82 0.0675402 -0.0362841 -0.0569661 0 0.0574181 -0.0365719 0.000154871 176.559 0.0122679 
86 0.0587835 -0.0315792 -0.0495808 0 0.0520058 -0.0331238 0.000292403 152.662 0.0111635 
90 0.0610931 -0.0328197 -0.051529 0 0.0513723 -0.03272 -0.000483274 156.161 0.00950876 
94 0.0599072 -0.0321825 -0.0505289 0 0.0526535 -0.0335357 0.000271133 164.717 0.00979653 
98 0.0615074 -0.0330421 -0.0518785 0 0.0551933 -0.0351534 0.000640631 168.904 0.00984805 
102 0.0531036 -0.0285275 -0.0447903 0 0.0469283 -0.0298893 0.00185847 143.301 0.00755552 
106 0.0623194 -0.0334784 -0.0525634 0 0.0561753 -0.0357788 0.00069044 179.783 0.00854843 
110 0.0473933 -0.0254599 -0.039974 0 0.0436231 -0.0277841 -0.00132292 129.583 0.00622378 
114 0.049624 -0.0266585 -0.0418553 0 0.046221 -0.0294391 -0.00209631 144.293 0.00603864 
118 0.00593173 -0.00593173 0 0 0 0.000854377 -0.000765107 9.43631 -0.00157866 
122 0.0072153 -0.0072153 0 0 0 0.000447257 0.000135637 9.24725 -0.00145475 
126 0.00541747 -0.00541747 0 0 0 0.00114158 0.00151864 8.10314 -0.000742746 
130 0.00466016 -0.00466016 0 0 0 4.43979e-05 -0.0016774 5.8347 -0.00033825 
134 0.00647638 -0.00647638 0 0 0 -0.000410001 0.00124968 27.1652 -5.22308e-05 
3 17.2556 17.2533 0.283375 0 -0.00155578 0.0947238 -0.00443116 14530.6 0.668457 
7 17.1851 17.1805 -0.396791 0 0.00560829 0.242831 -0.0040594 15020.7 1.73175 
11 17.0568 17.0233 -1.06715 0 0.0266586 0.425263 -0.000338546 15179.3 2.77446 
15 16.8754 16.7875 -1.72026 0 0.0619013 0.604076 -0.0127866 15257.3 3.78324 
19 16.6951 16.5279 -2.35662 0 0.11113 0.779399 0.00276321 15240.2 4.76027 
23 16.4169 16.1483 -2.95742 0 0.171966 0.938982 0.00535562 15262.8 5.66805 
27 16.0527 15.6635 -3.51358 0 0.247219 1.1021 -0.00288325 15135.8 6.4927 
31 15.6938 15.1657 -4.03713 0 0.34212 1.28519 0.00324076 15134.1 7.2624 
35 15.2667 14.5863 -4.50688 0 0.436768 1.41358 -0.0078991 14978.5 7.93087 
39 14.6668 13.8311 -4.88007 0 0.553955 1.57002 0.00369699 14750.7 8.44096 
43 13.9691 12.9793 -5.16455 0 0.692168 1.73953 0.00444042 14669.3 8.81611 
47 12.8926 11.7815 -5.23607 0 0.884567 1.99033 -0.00123987 14570.4 8.89164 
51 7.97799 6.14558 -5.08725 0 1.93352 2.33576 -0.00615953 12612.6 5.96655 
55 1.30956 0.137449 -1.30233 0 1.01581 0.10721 -0.00395202 2990.49 0.88306 
59 0.116375 -0.0625176 -0.0981564 0 0.0995798 -0.0634242 0.00139141 302.683 0.0287541 
63 0.0996377 -0.0535254 -0.0840399 0 0.0868535 -0.0553174 0.00076304 257.605 0.0247251 
67 0.085814 -0.0461 -0.0723798 0 0.0787298 -0.0501444 -0.00138427 235.921 0.0230981 
71 0.0762256 -0.0409497 -0.064292 0 0.0686312 -0.0437135 -0.00132932 196.016 0.0186554 
75 0.0802258 -0.0430983 -0.0676662 0 0.0719167 -0.0458055 0.000454091 214.484 0.0184424 
79 0.0691442 -0.0371448 -0.0583197 0 0.0609645 -0.0388294 -0.000545559 192.288 0.0144338 
83 0.0666972 -0.0358296 -0.0562562 0 0.0597427 -0.0380502 0.0035501 185.191 0.0136782 
87 0.06286 -0.0337689 -0.0530192 0 0.0549957 -0.0350278 -0.00219815 164.532 0.0114203 
91 0.0593363 -0.0318761 -0.0500472 0 0.0531213 -0.033834 -0.000627841 161.565 0.0107084 
95 0.0593931 -0.0319063 -0.0500952 0 0.052043 -0.0331469 -0.0043913 161.59 0.00946554 
99 0.0609421 -0.0327384 -0.0514017 0 0.0498474 -0.0317485 0.000665292 155.822 0.00746106 
103 0.0503791 -0.0270639 -0.0424923 0 0.0459669 -0.0292769 0.000325685 143.619 0.00760114 
107 0.0563571 -0.0302761 -0.047534 0 0.052502 -0.0334403 0.000206845 152.769 0.00818232 
111 0.0499615 -0.0268403 -0.0421396 0 0.0458642 -0.0292126 0.00198537 136.557 0.00635719 
115 0.0523203 -0.0281069 -0.0441296 0 0.0493212 -0.0314136 0.0015057 152.676 0.00636834 
119 0.00725725 -0.00725725 0 0 0 9.62549e-05 -4.57225e-05 11.6102 -0.00181438 
123 0.00706689 -0.00706689 0 0 0 2.03332e-05 0.000125601 11.934 -0.00131084 
127 0.00589203 -0.00589203 0 0 0 -0.00030729 -0.000259935 5.65231 -0.000712772 
131 0.00814014 -0.00814014 0 0 -2.67653e-18 0.00299543 -0.000622958 19.2312 -0.000459541 
4 17.2539 17.2535 0.11288 0 -0.000804143 0.122912 -0.0196371 14683.6 0.935987 
8 17.1863 17.1769 -0.56634 0 0.00960508 0.291319 0.00753522 15156.4 1.99817 
12 17.0359 16.9912 -1.23354 0 0.0340649 0.469222 -0.00394744 15116.6 3.03381 
16 16.8811 16.7753 -1.88667 0 0.0712211 0.633261 -0.00433715 15250.7 4.0423 
20 16.6221 16.4317 -2.50848 0 0.124303 0.814245 -0.00377709 15336.5 4.99046 
24 16.3424 16.0452 -3.10261 0 0.19202 0.993032 -0.0106834 15324.2 5.88659 
28 16.0057 15.5823 -3.65689 0 0.272599 1.16157 -0.00998336 15206.5 6.70956 
32 15.5534 14.9897 -4.14914 0 0.362226 1.30863 0.00581312 15021.9 7.41906 
36 15.1142 14.3958 -4.60425 0 0.463685 1.44977 -0.0045352 14946.4 8.06415 
40 14.4993 13.6249 -4.95897 0 0.583147 1.60221 -0.000670705 14754 8.54452 
44 13.7737 12.7468 -5.21867 0 0.734699 1.79453 0.00414689 14745.1 8.88745 
48 12.5037 11.3754 -5.19057 0 0.975102 2.13699 0.00050452 14669.1 8.84484 
52 5.6292 3.56486 -4.35657 0 2.06271 1.68786 0.00140073 9815.18 4.21454 
56 0.683559 -0.0603605 -0.680888 0 0.612843 -0.0543283 0.00303478 1708.84 0.423091 
60 0.107038 -0.0575023 -0.0902813 0 0.0921539 -0.058695 -0.00012582 277.636 0.0265902 
64 0.0931034 -0.0500175 -0.078527 0 0.0840844 -0.0535572 -3.86351e-05 256.107 0.0249838 
68 0.0863625 -0.0463958 -0.0728417 0 0.0754635 -0.0480657 0.00512577 221.964 0.0203299 
72 0.0807753 -0.043393 -0.06813 0 0.0712977 -0.0454106 -0.00189422 217.156 0.0185682 
76 0.0697188 -0.0374536 -0.0588042 0 0.058837 -0.0374745 -0.00185466 183.502 0.0135024 
80 0.0719525 -0.0386528 -0.0606887 0 0.0638418 -0.040661 -1.52657e-07 195.904 0.0150498 
84 0.067727 -0.0363836 -0.0571243 0 0.0608927 -0.0387838 -0.000974787 187.031 0.0138107 
88 0.0609718 -0.0327547 -0.0514266 0 0.0537708 -0.0342477 0.00276407 165.481 0.0111284 
92 0.0616734 -0.0331308 -0.0520188 0 0.0527362 -0.0335877 0.00285646 164.866 0.00971542 
96 0.0599583 -0.0322099 -0.050572 0 0.0590194 -0.0375901 0.00013307 180.831 0.0123745 
100 0.0498627 -0.0267872 -0.0420563 0 0.0441643 -0.0281298 0.00315227 134.579 0.00743048 
104 0.0530574 -0.0285035 -0.0447509 0 0.0472928 -0.0301225 0.00383851 139.029 0.00739592 
108 0.0576729 -0.0309822 -0.0486443 0 0.0519438 -0.0330837 0.000253897 157.219 0.00753874 
112 0.0536169 -0.0288033 -0.0452232 0 0.0501997 -0.0319729 -0.00335995 165.317 0.00696819 
116 0.0466546 -0.0250633 -0.0393508 0 0.0454301 -0.0289353 -0.00285888 147.715 0.00594095 
120 0.00621804 -0.00621804 0 0 0 0.000462351 0.000264293 11.6673 -0.00145427 
124 0.00750188 -0.00750188 0 0 0 0.00128923 0.000118023 10.737 -0.00127053 
128 0.00670561 -0.00670561 0 0 0 0.00334402 0.000953066 12.6462 -0.000703034 
132 0.00749017 -0.00749017 0 0 0 0.00307398 0.00110138 9.68907 -0.000302035 
