ITEM: TIMESTEP
15000
ITEM: NUMBER OF SURFS
134
ITEM: BOX BOUNDS oo ao pp
-10 10
0 10
-0.5 0.5
ITEM: SURFS id f_avg_pressure[1] f_avg_pressure[2] f_avg_pressure[3] f_avg_pressure[4] f_avg_shear[1] f_avg_shear[2] f_avg_shear[3] f_avg_heat_flux[*] f_avg_fdrag[*] 
1 17.233 17.2217 0.623385 0 -0.000265745 0.00734151 0.000339676 13910.2 0.133427 
5 17.1368 17.1367 -0.0569195 0 0.000527823 0.158912 0.00237653 14825.7 1.19544 
9 17.1517 17.1359 -0.734759 0 0.0160319 0.373892 -0.0113102 15334.2 2.2599 
13 17.0029 16.9453 -1.39886 0 0.0464435 0.5626 0.00799071 15384.8 3.29052 
17 16.7323 16.6082 -2.03408 0 0.0862561 0.704279 -0.0134006 15442.8 4.2629 
21 16.5764 16.361 -2.66346 0 0.145667 0.894797 -0.00781406 15470.7 5.22845 
25 16.3471 16.0183 -3.26204 0 0.21189 1.04049 -0.024061 15499.9 6.13099 
29 15.9498 15.4911 -3.79771 0 0.304708 1.24293 -0.00722972 15388.7 6.9227 
33 15.4652 14.8632 -4.27275 0 0.399862 1.39096 0.0302472 15149.8 7.60409 
37 15.0356 14.275 -4.72161 0 0.494917 1.4963 -0.0118947 15100.3 8.23347 
41 14.3605 13.4453 -5.04464 0 0.627057 1.67128 -0.0178946 14960.6 8.66766 
45 13.5514 12.4898 -5.25782 0 0.788464 1.87298 -0.00158163 14899.5 8.94357 
49 11.8675 10.7474 -5.03303 0 1.08268 2.31193 0.00856338 14820.8 8.63863 
53 3.74504 1.76989 -3.30043 0 1.89137 1.01427 0.00698212 7188.99 2.77187 
57 0.375309 -0.104417 -0.360491 0 0.342698 -0.099263 0.00987892 933.084 0.181837 
61 0.119095 -0.0639787 -0.10045 0 0.110312 -0.0702599 0.00199958 336.456 0.03516 
65 0.0800576 -0.0430076 -0.0675246 0 0.0688657 -0.0438618 0.00774482 220.241 0.0187438 
69 0.0848413 -0.0455767 -0.0715598 0 0.0711305 -0.0453032 0.00108547 223.917 0.0176553 
73 0.0779928 -0.0418984 -0.065783 0 0.0690583 -0.0439845 0.00121357 203.064 0.017842 
77 0.0696672 -0.0374252 -0.0587612 0 0.0621863 -0.0396066 -0.0018893 173.947 0.0154251 
81 0.0673694 -0.0361914 -0.0568227 0 0.0595863 -0.0379516 0.00384691 166.607 0.013779 
85 0.0732788 -0.0393661 -0.0618069 0 0.0661172 -0.0421114 0.00487045 182.122 0.0148468 
89 0.0553483 -0.0297338 -0.0466833 0 0.0456457 -0.0290728 0.0062831 135.741 0.00829071 
93 0.0584469 -0.0313989 -0.0492965 0 0.0517108 -0.0329367 -0.00959812 155.656 0.00989299 
97 0.0629682 -0.0338277 -0.0531101 0 0.0642746 -0.0409388 -0.00692881 212.283 0.0137949 
101 0.0573836 -0.0308268 -0.0484003 0 0.0541443 -0.0344852 0.000203968 150.264 0.00977239 
105 0.05348 -0.0287297 -0.0451078 0 0.0515991 -0.0328641 -0.000412136 164.159 0.00880765 
109 0.0469932 -0.025245 -0.0396365 0 0.0452508 -0.0288208 -0.000100227 138.308 0.00702509 
113 0.0493074 -0.0264883 -0.0415883 0 0.0488457 -0.0311106 -0.00187828 148.837 0.00709127 
117 0.00696381 -0.00696381 0 0 0 -0.000366618 -0.00195802 10.5319 -0.00196567 
121 0.0049701 -0.0049701 0 0 0 -0.00241728 -0.00119337 7.79971 -0.00108224 
125 0.00872876 -0.00872876 0 0 0 0.000467545 -0.0012887 7.4511 -0.00133752 
129 0.0054696 -0.0054696 0 0 0 0.0048688 -0.000118077 7.27209 -0.000485225 
133 0.00499531 -0.00499531 0 0 0 0.00190179 0.00112698 16.0818 -0.000120859 
2 17.2579 17.2519 0.453744 0 -3.37441e-05 0.00128299 -0.0178956 14397.7 0.401028 
6 17.2377 17.2362 -0.227595 0 0.00230709 0.17472 0.00453876 15101.2 1.46978 
10 17.1289 17.1051 -0.902671 0 0.0215451 0.408267 0.0103251 15276.5 2.52182 
14 16.9829 16.9107 -1.56405 0 0.0536533 0.580107 0.00178016 15542.9 3.54725 
18 16.7649 16.6197 -2.20237 0 0.0983226 0.741969 -0.0250805 15506.5 4.52604 
22 16.5185 16.2768 -2.81544 0 0.154544 0.893463 0.0350255 15506.3 5.45582 
26 16.1642 15.8065 -3.38176 0 0.235375 1.10015 -0.0120592 15398.6 6.3032 
30 15.7709 15.2796 -3.9061 0 0.311718 1.21935 0.00215738 15160.6 7.06757 
34 15.3776 14.7364 -4.39416 0 0.415892 1.39475 -0.0211942 15171 7.77416 
38 14.8024 14.007 -4.78692 0 0.519551 1.52026 -0.0147299 14894.3 8.31134 
42 14.2493 13.2911 -5.13708 0 0.672263 1.73934 0.0222118 15050.5 8.80276 
46 13.2022 12.1168 -5.24237 0 0.831502 1.92186 0.00941871 14604.1 8.9061 
50 10.6981 9.39911 -5.10952 0 1.42725 2.62547 0.024198 15008.3 7.86368 
54 2.26274 0.665845 -2.16255 0 1.48505 0.457243 -0.0131544 4848.12 1.64056 
58 0.177416 -0.0812182 -0.157735 0 0.152102 -0.0783181 -0.00317593 463.841 0.0537061 
62 0.0882136 -0.047389 -0.0744038 0 0.0812908 -0.0517754 -0.0042726 240.633 0.0254383 
66 0.0886723 -0.0476344 -0.0747913 0 0.0762566 -0.0485676 0.00374949 208.912 0.0205047 
70 0.0787484 -0.0423043 -0.0664203 0 0.0767027 -0.0488533 0.00700466 225.72 0.0234736 
74 0.0640952 -0.0344325 -0.0540611 0 0.0585463 -0.0372892 0.000795001 163.441 0.0156361 
78 0.0699736 -0.0375914 -0.0590186 0 0.0634844 -0.0404359 0.00631993 177.601 0.0159102 
82 0.0785906 -0.0422206 -0.0662865 0 0.0691288 -0.044031 -0.00139979 218.319 0.0156198 
86 0.0662544 -0.0355927 -0.0558821 0 0.0495436 -0.0315555 -0.00423232 154.017 0.00762446 
90 0.0638137 -0.0342813 -0.0538236 0 0.0527018 -0.0335668 0.00118581 164.609 0.0094411 
94 0.0604335 -0.0324652 -0.0509727 0 0.0516546 -0.0328995 0.00293978 155.561 0.00918323 
98 0.0595727 -0.0320028 -0.0502467 0 0.0522732 -0.0332935 -0.00314406 155.906 0.00901185 
102 0.0504624 -0.0271087 -0.0425626 0 0.043488 -0.0276981 0.00713269 131.414 0.0067255 
106 0.0654274 -0.035148 -0.0551849 0 0.0600738 -0.0382618 0.00374001 191.326 0.00938789 
110 0.039642 -0.0212958 -0.0334361 0 0.0411529 -0.0262107 0.00344416 110.367 0.00680418 
114 0.047315 -0.0254181 -0.0399077 0 0.0430214 -0.0274013 -0.00210236 136.921 0.00543388 
118 0.00414631 -0.00414631 0 0 0 -1.33467e-05 0.00065586 5.37756 -0.00110349 
122 0.00890178 -0.00890178 0 0 0 0.00159927 -0.000583159 11.5045 -0.00179478 
126 0.00571235 -0.00571235 0 0 0 0.00119048 0.00114543 10.1427 -0.000783174 
130 0.0081466 -0.0081466 0 0 0 -0.000209506 -0.0066454 14.5023 -0.000591307 
134 0.00633714 -0.00633714 0 0 0 0.00316493 0.00311764 10.8136 -5.11079e-05 
3 17.2878 17.2855 0.283904 0 -0.00148865 0.0906365 -0.0231011 14660.5 0.669707 
7 17.1843 17.1797 -0.396773 0 0.00538869 0.233323 0.0255844 15191.7 1.73165 
11 17.116 17.0825 -1.07085 0 0.0275336 0.439223 -0.0132184 15416.4 2.78423 
15 16.8571 16.7693 -1.7184 0 0.062251 0.607489 -0.0151448 15372.8 3.77924 
19 16.8324 16.6639 -2.37601 0 0.114659 0.804149 -0.000481287 15608.9 4.80018 
23 16.4271 16.1584 -2.95926 0 0.17483 0.954622 -0.00852806 15402.4 5.67254 
27 16.0392 15.6503 -3.51063 0 0.252102 1.12387 0.0120596 15200.2 6.48932 
31 15.6291 15.1031 -4.02047 0 0.336771 1.2651 -0.00485091 15157.6 7.23059 
35 15.3264 14.6434 -4.5245 0 0.441381 1.42851 -0.0215418 15243.5 7.96341 
39 14.6689 13.8331 -4.88076 0 0.554997 1.57297 0.0136592 14851.8 8.44271 
43 14.0082 13.0157 -5.17902 0 0.695029 1.74672 -0.0094587 14876.7 8.84142 
47 12.8997 11.788 -5.23896 0 0.896641 2.01749 -0.0138201 14703.2 8.90467 
51 8.0222 6.17964 -5.11544 0 1.96735 2.37664 0.00165867 12820.5 6.01668 
55 1.27244 0.133553 -1.26541 0 1.02442 0.108119 -0.013574 3033.23 0.886668 
59 0.111402 -0.059846 -0.0939619 0 0.102338 -0.065181 0.00108517 316.415 0.0329668 
63 0.105616 -0.0567367 -0.0890819 0 0.0989366 -0.0630132 0.00295204 274.697 0.0313069 
67 0.09189 -0.0493641 -0.0775046 0 0.087355 -0.0556379 -0.00482538 257.405 0.0268931 
71 0.0860066 -0.0462042 -0.0725417 0 0.0805121 -0.0512808 -0.00226503 245.301 0.023121 
75 0.0793742 -0.0426408 -0.066948 0 0.075793 -0.0482744 0.00358327 239.754 0.0212158 
79 0.0712991 -0.0383025 -0.0601372 0 0.0636207 -0.0405212 -0.00369438 200.127 0.0153418 
83 0.0685139 -0.0368056 -0.0577885 0 0.055175 -0.035141 0.00673612 173.256 0.0105072 
87 0.0650747 -0.0349587 -0.0548872 0 0.0582965 -0.0371301 0.00129834 175.021 0.012556 
91 0.0590388 -0.0317162 -0.0497962 0 0.0531045 -0.0338233 0.000367006 163.512 0.0107805 
95 0.054364 -0.0292046 -0.0458534 0 0.0457833 -0.02916 0.000515345 140.587 0.00779301 
99 0.0624793 -0.0335642 -0.0526982 0 0.0500945 -0.0319059 -0.00293951 166.164 0.00720867 
103 0.0531606 -0.0285581 -0.0448384 0 0.0462776 -0.0294748 -0.002769 167.87 0.00712524 
107 0.0491638 -0.0264117 -0.0414668 0 0.0374654 -0.0238631 -0.000747893 120.572 0.00406937 
111 0.0522508 -0.0280702 -0.0440706 0 0.05376 -0.0342418 0.00392086 158.969 0.00858473 
115 0.0512728 -0.0275441 -0.043246 0 0.0452811 -0.0288404 -0.00232626 153.152 0.00532447 
119 0.00608683 -0.00608683 0 0 0 0.000649745 -0.00149036 8.40964 -0.00152177 
123 0.0085589 -0.0085589 0 0 0 -0.00518286 0.000974986 15.8631 -0.00158759 
127 0.00561147 -0.00561147 0 0 0 -0.001853 0.00263956 3.37635 -0.000678831 
131 0.00910978 -0.00910978 0 0 -3.242e-18 0.000765082 0.00228971 13.3486 -0.000514282 
4 17.3056 17.3053 0.113219 0 -0.000853283 0.130423 -0.026868 14841.9 0.938791 
8 17.2025 17.1931 -0.566874 0 0.00964654 0.292577 0.0200224 15385.8 2.00006 
12 17.0583 17.0135 -1.23516 0 0.0330503 0.455245 -0.0214495 15285.9 3.0376 
16 16.8826 16.7768 -1.88684 0 0.0732712 0.651489 0.0056987 15444.8 4.04316 
20 16.6075 16.4173 -2.50627 0 0.123672 0.810112 0.0206443 15474.2 4.98591 
24 16.3532 16.0558 -3.10467 0 0.196157 1.01443 -0.00714425 15548.2 5.89194 
28 15.9909 15.568 -3.65353 0 0.273586 1.16577 -0.00448115 15326.8 6.70392 
32 15.5235 14.961 -4.14117 0 0.366676 1.3247 0.00685485 15168.6 7.40729 
36 15.1947 14.4725 -4.62878 0 0.474437 1.48339 -0.0273273 15156.7 8.11159 
40 14.5481 13.6708 -4.97566 0 0.585201 1.60785 0.0233644 14993.4 8.57334 
44 13.8877 12.8522 -5.26185 0 0.734733 1.79461 0.0205551 15045.3 8.957 
48 12.4919 11.3647 -5.18568 0 0.980047 2.14782 -0.00262973 14707.9 8.84071 
52 5.59566 3.54361 -4.33061 0 2.06847 1.69257 0.00623227 9810.66 4.20294 
56 0.699994 -0.0618118 -0.697259 0 0.639809 -0.0567188 -0.00225423 1834.99 0.44263 
60 0.111188 -0.0597316 -0.0937814 0 0.0992882 -0.063239 -0.00126815 311.464 0.0303541 
64 0.094971 -0.0510208 -0.0801022 0 0.0888457 -0.0565899 0.000294154 277.29 0.0277398 
68 0.0824631 -0.0443009 -0.0695528 0 0.067113 -0.0427469 0.00466014 192.033 0.0159547 
72 0.0699989 -0.0376039 -0.0590406 0 0.0579959 -0.0369385 0.0013095 166.524 0.0135692 
76 0.0700468 -0.0376298 -0.0590809 0 0.0585727 -0.0373061 -0.000731396 200.153 0.0132242 
80 0.0607786 -0.0326502 -0.051264 0 0.0511177 -0.032557 0.00165856 162.652 0.0110339 
84 0.0680045 -0.0365326 -0.0573583 0 0.0532889 -0.0339407 -0.00417124 171.197 0.009442 
88 0.0659854 -0.035448 -0.0556553 0 0.0597711 -0.0380694 0.00698941 180.804 0.0128795 
92 0.0648924 -0.03486 -0.0547339 0 0.0555734 -0.0353948 0.000155058 170.431 0.0102645 
96 0.0573039 -0.0307839 -0.0483331 0 0.0514742 -0.0327845 -0.00236816 158.767 0.00955005 
100 0.0519644 -0.0279163 -0.043829 0 0.0455136 -0.0289892 -0.000202875 148.571 0.00752464 
104 0.0487959 -0.0262141 -0.0411565 0 0.0478714 -0.0304911 0.00203675 148.289 0.00852483 
108 0.0504452 -0.0270995 -0.0425481 0 0.0411621 -0.0262167 0.00219173 121.844 0.00505758 
112 0.0561012 -0.0301379 -0.0473186 0 0.0477672 -0.0304236 -0.00549482 157.373 0.00574135 
116 0.0411393 -0.0221004 -0.0346989 0 0.0427926 -0.0272554 0.00132651 129.884 0.00603586 
120 0.00810275 -0.00810275 0 0 0 0.00270794 0.00208897 19.6393 -0.00189507 
124 0.00745519 -0.00745519 0 0 0 0.000602704 0.000524567 6.84378 -0.00126262 
128 0.00724694 -0.00724694 0 0 0 0.00444237 0.000484357 12.3173 -0.000759789 
132 0.0102863 -0.0102863 0 0 0 0.00476577 -0.00086078 4.28486 -0.000414787 
