ITEM: TIMESTEP
14000
ITEM: NUMBER OF CELLS
246
ITEM: BOX BOUNDS oo ao pp
-10 10
0 10
-0.5 0.5
ITEM: CELLS id proc f_avg_n f_avg_nrho f_avg_temp_tra f_avg_temp_rot f_avg_temp_vib f_avg_vel[1] f_avg_vel[2] f_avg_vel[3] f_avg_nrho_CO2 f_avg_nrho_O2 f_avg_nrho_C2 f_avg_nrho_CO f_avg_nrho_O f_avg_nrho_C 
65 0 24.59 8.67389e+16 5612.52 174.916 158.911 7056.48 5.89266 1.08867 8.25412e+16 0 0 1.62261e+15 2.575e+15 0 
129 0 26.97 9.51341e+16 9940.31 299.052 178.893 6666.93 17.199 0.893563 8.63861e+16 0 0 3.5274e+15 5.22056e+15 0 
257 0 25.65 9.04779e+16 9564.62 253.51 171.764 6706.12 8.49995 -5.62379 8.2506e+16 0 0 3.73905e+15 4.23288e+15 0 
66 0 28.69 1.01201e+17 13088.7 419.125 206.209 6334.19 27.0363 -3.7939 8.9208e+16 0 0 4.93837e+15 7.05481e+15 0 
130 0 34.44 1.21484e+17 18617.2 497.653 276.904 5563.77 14.0442 -7.70948 1.00037e+17 0 0 9.62981e+15 1.18168e+16 0 
194 0 28.94 1.02083e+17 13910.4 437.215 220.819 6213 34.5704 -8.68985 8.81851e+16 3.5274e+13 0 6.34933e+15 7.51337e+15 0 
258 0 32.05 1.13053e+17 19203.3 531.29 274.511 5479.14 55.7866 -3.80635 9.22063e+16 1.05822e+14 0 1.03e+16 1.04411e+16 0 
579 0 30.09 2.12279e+17 15774 524.56 228.124 5939.05 7.79199 -29.1097 1.82649e+17 0 0 1.05822e+16 1.9048e+16 0 
1091 0 31.92 2.25189e+17 19749.3 805.33 316.737 5298.84 79.7999 26.6284 1.78416e+17 0 0 2.2787e+16 2.39863e+16 0 
1603 0 17.01 1.20002e+17 24302.2 627.259 411.332 4066.97 54.3948 -10.4611 8.88906e+16 0 0 1.59439e+16 1.51678e+16 0 
2115 0 20.91 1.47516e+17 24187.7 836.671 412.43 3420.99 53.2388 -12.9725 1.03847e+17 7.05481e+13 0 2.27165e+16 2.08822e+16 0 
707 0 20.92 1.47587e+17 21767.6 604.285 275.581 5002.02 57.8634 -18.167 1.16545e+17 7.05481e+13 0 1.3263e+16 1.77076e+16 0 
1219 0 24.52 1.72984e+17 23414.2 725.125 316.516 4239.14 89.5577 24.508 1.26704e+17 7.05481e+13 0 2.13761e+16 2.48329e+16 0 
643 0 39.16 2.76266e+17 21106.8 860.822 328.702 4847.7 66.2919 -5.34418 2.0847e+17 7.05481e+13 0 3.33692e+16 3.43569e+16 0 
1667 0 29.08 2.05154e+17 22075.3 1089.35 456.982 2586.48 55.3783 -19.4703 1.3263e+17 7.05481e+13 0 3.43569e+16 3.8096e+16 0 
2179 0 35.56 2.50869e+17 18762.4 1158.82 521.906 1824.34 90.5622 8.1742 1.56546e+17 2.11644e+14 0 4.63501e+16 4.7761e+16 0 
771 0 30.59 2.15807e+17 23625 995.94 418.32 3703.92 121.094 -9.49142 1.54289e+17 7.05481e+13 0 2.82898e+16 3.31576e+16 0 
1283 0 39.01 2.75208e+17 22175.5 1136.98 458.744 2855.87 121.28 -14.4192 1.83072e+17 1.41096e+14 0 4.4798e+16 4.71967e+16 0 
5251 0 28.28 3.9902e+17 19011.9 950.94 365.395 5229.76 30.2299 -13.4816 3.15773e+17 0 0 4.13412e+16 4.19056e+16 0 
9347 0 31.58 4.45582e+17 21223.1 937.454 433.249 4759.26 58.6763 40.5927 3.37784e+17 1.41096e+14 0 5.53097e+16 5.23467e+16 0 
13443 0 20.93 2.95314e+17 22972.7 967.209 490.256 3773.56 57.4421 17.9711 2.01909e+17 1.41096e+14 0 4.34576e+16 4.98069e+16 0 
17539 0 22.66 3.19724e+17 22805.6 1058.18 543.754 3042.05 46.1677 -9.15937 2.19687e+17 0 0 4.8396e+16 5.16412e+16 0 
4676 0 35.38 4.99198e+17 21926.8 1115.81 483.181 4209.01 49.3242 -22.0724 3.5401e+17 4.23288e+14 0 7.28056e+16 7.1959e+16 0 
8772 0 38.44 5.42374e+17 21989.8 1502.54 479.827 3740.39 40.6495 30.3835 3.61629e+17 0 0 9.73563e+16 8.33878e+16 0 
12868 0 27.02 3.81242e+17 21942 1187.58 514.169 2797.54 70.9324 17.094 2.51998e+17 1.41096e+14 0 6.7444e+16 6.1659e+16 0 
16964 0 31.42 4.43324e+17 18612.5 1344.57 613.355 1901.56 50.6253 -8.9677 2.74855e+17 1.41096e+14 0 8.63508e+16 8.19769e+16 0 
5188 0 44.33 6.25479e+17 21222.2 1488.4 545.499 3030.18 22.2665 20.4194 4.05934e+17 5.64385e+14 0 1.1711e+17 1.01871e+17 0 
9284 0 54.33 7.66575e+17 19934.9 1450.04 593.375 2633.83 18.89 -18.2077 4.68862e+17 2.82192e+14 0 1.42366e+17 1.55065e+17 0 
13380 0 37.95 5.3546e+17 17234.4 1421.09 567.225 1732.23 88.9054 -3.5552 3.32705e+17 5.64385e+14 0 1.05258e+17 9.69331e+16 0 
17476 0 47.23 6.66397e+17 14202.4 1382.72 632.826 1214.99 65.4761 -1.25909 4.01419e+17 8.46577e+14 0 1.37428e+17 1.26704e+17 0 
5700 0 23.52 3.31858e+17 17029.6 1253.45 544.087 1534.37 109.578 3.79914 2.08258e+17 2.82192e+14 0 6.61741e+16 5.71439e+16 0 
9796 0 29.65 4.1835e+17 13682.3 1380.66 635.947 1080.8 81.8391 7.16899 2.44802e+17 2.82192e+14 0 9.49577e+16 7.83084e+16 0 
13892 0 24.39 3.44134e+17 17347.6 1127.79 544.489 1592.5 78.9111 27.8207 2.08822e+17 7.05481e+14 0 6.75851e+16 6.70207e+16 0 
17988 0 27.78 3.91965e+17 13511.2 1389.86 552.658 996.978 119.858 20.0253 2.40005e+17 0 0 8.16947e+16 7.02659e+16 0 
6212 0 36.9 5.20645e+17 12019 1383.8 572.226 824.157 95.8196 -8.33199 3.15209e+17 2.82192e+14 0 9.8344e+16 1.0681e+17 0 
10308 0 48.97 6.90948e+17 9031.53 1373.09 601.903 456.208 118.249 2.35218 4.16516e+17 5.64385e+14 0 1.46176e+17 1.27692e+17 0 
14404 0 36.91 5.20786e+17 11321.8 1301.37 599.281 747.403 135.225 -13.3196 3.22546e+17 1.41096e+14 0 1.02295e+17 9.58043e+16 0 
18500 0 46.97 6.62729e+17 9641.89 1188.6 579.403 536.543 154.985 23.9108 3.90695e+17 7.05481e+14 0 1.36158e+17 1.3517e+17 0 
4804 0 24.66 3.47943e+17 18608.5 1487.71 634.139 1887.27 124.666 -13.649 2.23637e+17 5.64385e+14 0 5.85549e+16 6.51864e+16 0 
8900 0 29.94 4.22442e+17 17909.7 1321.98 547.114 1764.12 157.058 -4.27841 2.68083e+17 4.23288e+14 0 7.57686e+16 7.81673e+16 0 
12996 0 24.98 3.52458e+17 19937.4 1425.45 554.182 2254.95 206.395 9.21184 2.24766e+17 7.05481e+14 0 6.67385e+16 6.02481e+16 0 
17092 0 27.46 3.8745e+17 17936.5 1148.02 530.602 1714.64 189.759 17.171 2.46213e+17 0 0 7.84495e+16 6.27878e+16 0 
5316 0 35.91 5.06676e+17 15060.4 1318.29 553.054 1294.06 175.851 5.51982 3.11258e+17 4.23288e+14 0 1.01589e+17 9.34056e+16 0 
9412 0 44.85 6.32816e+17 12932.8 1346.21 620.583 1046.43 181.96 -2.45219 3.81242e+17 4.23288e+14 0 1.31643e+17 1.19508e+17 0 
13508 0 32.51 4.58704e+17 16067.8 1303.86 546.951 1458.09 240.691 4.60332 2.8064e+17 1.41096e+14 0 9.25591e+16 8.53632e+16 0 
17604 0 40.31 5.68759e+17 13999.7 1261.8 562.657 1169.48 239.569 7.03008 3.49918e+17 2.82192e+14 0 1.10619e+17 1.07939e+17 0 
4740 0 72.54 1.02351e+18 16449.2 1630.97 638.676 1876.01 46.1707 0.200301 6.19835e+17 2.82192e+14 0 2.00215e+17 2.03178e+17 0 
8836 0 103.67 1.46274e+18 12900.1 1667.97 679.9 1249.22 39.6438 8.09402 8.5984e+17 1.97535e+15 0 3.27202e+17 2.73727e+17 0 
12932 0 66.98 9.45062e+17 11739.5 1582.28 631.147 913.989 101.479 -15.8652 5.58035e+17 5.64385e+14 0 2.00074e+17 1.86388e+17 0 
17028 0 99.81 1.40828e+18 8071.82 1375.27 637.678 461.449 82.3061 -0.753967 8.32044e+17 8.46577e+14 0 3.24098e+17 2.51292e+17 0 
5764 0 66.47 9.37866e+17 8364.91 1329.64 669.986 436.348 120.641 -9.50349 5.59023e+17 8.46577e+14 0 2.05718e+17 1.72278e+17 0 
9860 0 89.45 1.26211e+18 6417.68 1298.04 603.479 256.104 139.512 -13.7537 7.71232e+17 1.41096e+15 0 2.57924e+17 2.31539e+17 0 
13956 0 62.64 8.83826e+17 6769.25 1289.05 608.497 240.309 149.584 -4.90944 5.32779e+17 7.05481e+14 0 1.87093e+17 1.63248e+17 0 
18052 0 87.48 1.23431e+18 6105.08 1327.98 621.454 239.687 158.305 3.43313 7.32853e+17 9.87673e+14 0 2.71751e+17 2.28717e+17 0 
4868 0 57.98 8.18075e+17 11228.2 1442.16 602.129 817.777 188.171 -11.2274 5.13308e+17 2.82192e+14 0 1.65365e+17 1.39121e+17 0 
8964 0 78.52 1.10789e+18 7945.78 1322.51 620.559 472.468 187.725 -1.7191 6.83611e+17 8.46577e+14 0 2.2787e+17 1.95559e+17 0 
13060 0 53.33 7.52466e+17 10872 1326.08 604.633 791.708 243.099 -0.671589 4.56587e+17 1.41096e+14 0 1.59721e+17 1.36017e+17 0 
17156 0 68.11 9.61006e+17 7915.2 1263.39 615.835 457.108 245.772 -4.90699 5.79764e+17 1.69315e+15 0 2.07129e+17 1.72419e+17 0 
84 1 34.78 1.22683e+17 17541.2 763.16 304.813 5511.01 227.041 -7.5018 1.00178e+17 0 0 1.12877e+16 1.12171e+16 0 
148 1 35.6 1.25576e+17 17405.6 936.926 337.968 5388.87 309.981 -2.93843 1.0039e+17 1.41096e+14 0 1.31925e+16 1.18521e+16 0 
212 1 27.54 9.71447e+16 12175.8 544.433 246.351 6323.19 177.523 -10.7967 8.4693e+16 3.5274e+13 0 5.96131e+15 6.45515e+15 0 
276 1 28.52 1.00602e+17 11759.2 624.916 258.844 6320.76 201.649 -7.42 8.88906e+16 3.5274e+13 0 5.64385e+15 6.03186e+15 0 
92 1 26.22 9.24885e+16 8547.63 410.261 215.642 6706.61 119.1 5.75288 8.45166e+16 0 0 4.19761e+15 3.77432e+15 0 
156 1 24.55 8.65978e+16 7534.35 452.401 222.843 6812.1 132.965 -6.75105 8.03895e+16 3.5274e+13 0 2.82192e+15 3.35103e+15 0 
220 1 24.44 8.62097e+16 5595.41 405.178 173.977 7015.6 98.2146 -3.44893 8.12714e+16 0 0 2.36336e+15 2.575e+15 0 
284 1 24.58 8.67036e+16 5379.31 293.128 181.937 7032.45 102.69 1.36663 8.22238e+16 0 0 1.97535e+15 2.50446e+15 0 
588 1 36.61 2.58276e+17 20985.6 1329.43 504.361 2698.98 276.292 12.0524 1.70656e+17 2.11644e+14 0 4.55741e+16 4.1835e+16 0 
1612 1 28.56 2.01485e+17 22157.1 1125.32 440.764 3155.88 302.105 8.04675 1.39826e+17 7.05481e+13 0 3.06179e+16 3.09706e+16 0 
2124 1 35.19 2.48259e+17 20507.8 1227.67 520.195 2671.36 371.514 -4.75658 1.64871e+17 2.82192e+14 0 4.50097e+16 3.8096e+16 0 
716 1 24.69 1.74183e+17 22303.3 910.733 372.964 4217.01 259.63 10.8589 1.30161e+17 4.23288e+14 0 2.35631e+16 2.00357e+16 0 
1228 1 27.26 1.92314e+17 22356.7 1139.32 414.176 3780.52 365.149 -4.46954 1.3898e+17 7.05481e+13 0 2.73021e+16 2.59617e+16 0 
1740 1 18.84 1.32913e+17 21627.7 915.93 367.451 4511.53 297.861 5.56561 1.00531e+17 7.05481e+13 0 1.71432e+16 1.51678e+16 0 
2252 1 21.07 1.48645e+17 21588.3 1086.79 413.11 4319.88 342.405 -8.94504 1.12171e+17 0 0 1.87658e+16 1.77076e+16 0 
780 1 29.82 2.10374e+17 21099.8 1132.47 471.207 3439.83 406.065 0.59039 1.47798e+17 0 0 3.23816e+16 3.01946e+16 0 
1804 1 22.84 1.61132e+17 20955.3 1325.35 423.695 4127.59 413.736 -9.4899 1.17674e+17 7.05481e+13 0 2.27165e+16 2.06706e+16 0 
5828 1 21.1 2.97713e+17 19771.8 1009.36 561.405 2085.81 194.494 -43.0414 1.9443e+17 0 0 5.24878e+16 5.07946e+16 0 
9924 1 24.14 3.40606e+17 16735.8 1585.2 562.117 1625.47 281.253 19.4475 2.11926e+17 1.41096e+14 0 7.0407e+16 5.81316e+16 0 
14020 1 19.64 2.77113e+17 20242.7 1152.32 515.22 2198.44 248.729 13.2992 1.78346e+17 0 0 4.95247e+16 4.92426e+16 0 
18116 1 22.23 3.13657e+17 17924.4 1146.49 520.631 1819.2 275.026 15.7806 1.93725e+17 4.23288e+14 0 6.61741e+16 5.33343e+16 0 
6340 1 29.96 4.22724e+17 15539.3 1325.42 547.848 1364.77 248.684 -0.913986 2.60746e+17 5.64385e+14 0 8.35289e+16 7.78851e+16 0 
10436 1 36.6 5.16412e+17 13462 1297.72 605.982 1106.61 271.136 -7.66391 3.1789e+17 5.64385e+14 0 1.03988e+17 9.397e+16 0 
14532 1 26.77 3.77714e+17 15690.6 1349.33 596.68 1498.43 290.131 -0.238302 2.28576e+17 2.82192e+14 0 7.59097e+16 7.29467e+16 0 
18628 1 31.26 4.41067e+17 14453.8 1288.71 576.503 1254.07 318.169 -6.0301 2.75561e+17 8.46577e+14 0 8.43755e+16 8.02837e+16 0 
5196 1 24.18 3.4117e+17 18405.3 1278.5 517.604 1871.69 339.655 -10.2902 2.29563e+17 1.41096e+14 0 5.7285e+16 5.41809e+16 0 
9292 1 28.31 3.99443e+17 18101.5 1358.3 535.453 2001.14 326.788 -24.2134 2.57924e+17 4.23288e+14 0 7.42166e+16 6.68796e+16 0 
13388 1 20.53 2.8967e+17 20338.2 1135.88 550.669 2459.94 308.245 8.66978 1.88222e+17 4.23288e+14 0 5.36165e+16 4.74083e+16 0 
17484 1 24.03 3.39054e+17 18449.3 1155.23 565.82 2149.02 356.216 -3.75581 2.18699e+17 1.41096e+14 0 6.34933e+16 5.67207e+16 0 
4748 1 34.72 4.89886e+17 14071.1 1228.1 598.742 1348.26 367.994 -5.89339 3.07872e+17 1.41096e+14 0 9.90495e+16 8.28234e+16 0 
8844 1 39.43 5.56342e+17 12291.6 1273.89 577.942 1060.91 391.31 22.7038 3.47661e+17 2.82192e+14 0 1.12454e+17 9.59454e+16 0 
12940 1 25.86 3.64875e+17 16693.3 1402.78 615.156 1798.34 392.256 -7.71369 2.35066e+17 0 0 7.56275e+16 5.41809e+16 0 
17036 1 31.35 4.42336e+17 14625.6 1458.77 596.55 1521.01 441.311 -16.7564 2.72598e+17 4.23288e+14 0 9.56632e+16 7.36522e+16 0 
5772 1 21.79 3.07449e+17 17085.8 1256.14 640.171 2035.15 404.1 67.287 1.95841e+17 5.64385e+14 0 5.75672e+16 5.34754e+16 0 
9868 1 22.44 3.1662e+17 15584.9 1173.27 593.451 1715.64 482.698 -3.39662 2.06141e+17 0 0 5.50275e+16 5.54508e+16 0 
13964 1 17.97 2.5355e+17 20124.7 1426.6 519.772 2713.86 419.656 -26.4223 1.73266e+17 1.41096e+14 0 4.14823e+16 3.86603e+16 0 
18060 1 20.3 2.86425e+17 18352.1 1635.36 566.729 2337.11 492.482 0.766092 1.89492e+17 4.23288e+14 0 5.15001e+16 4.50097e+16 0 
5892 1 45.07 6.3592e+17 10495.5 1179.6 567.919 726.676 305.928 5.1653 3.87027e+17 2.82192e+14 0 1.30091e+17 1.18521e+17 0 
9988 1 58.83 8.30069e+17 8053.71 1164.23 589.992 481.186 307.399 -3.6937 5.11615e+17 8.46577e+14 0 1.71432e+17 1.46176e+17 0 
14084 1 38.63 5.45054e+17 12049.8 1271.13 565.437 914.026 340.078 4.17338 3.39336e+17 7.05481e+14 0 1.13723e+17 9.12892e+16 0 
18180 1 47.88 6.75568e+17 10396.1 1300.73 589.436 757.511 345.803 -14.194 4.26251e+17 2.82192e+14 0 1.35452e+17 1.13582e+17 0 
193 1 24.32 8.57865e+16 6352.25 228.65 158.833 7002.95 8.57819 6.82437 8.13067e+16 3.5274e+13 0 1.48151e+15 2.96302e+15 0 
73 1 24.35 8.58923e+16 6217.44 171.239 148.676 7012.4 10.4895 0.764907 8.13067e+16 0 0 1.9048e+15 2.68083e+15 0 
137 1 25.95 9.15361e+16 8461.64 227.085 169.497 6822.31 18.1071 9.0424 8.48693e+16 0 0 2.68083e+15 3.98597e+15 0 
201 1 24.02 8.47282e+16 4545.36 212.001 151.741 7142.54 8.73818 -3.96384 8.13067e+16 0 0 1.69315e+15 1.72843e+15 0 
265 1 24.46 8.62803e+16 6892.96 225.023 161.19 6944.66 19.2692 -8.57134 8.10245e+16 0 0 2.46918e+15 2.78665e+15 0 
81 1 23.93 8.44108e+16 4673.34 156.884 151.378 7141.71 16.2813 2.70182 8.1095e+16 0 0 1.41096e+15 1.9048e+15 0 
145 1 24.42 8.61392e+16 5905.8 263.191 167.122 7029.1 30.9934 0.14797 8.15536e+16 0 0 1.62261e+15 2.96302e+15 0 
209 1 23.46 8.27529e+16 3314.22 176.424 146.463 7238.68 22.8482 -0.618754 8.00368e+16 0 0 9.52399e+14 1.7637e+15 0 
273 1 23.71 8.36347e+16 4025.93 191.977 145.624 7184.86 25.1064 4.55616 8.08481e+16 0 0 1.19932e+15 1.58733e+15 0 
89 1 23.18 8.17652e+16 2697.62 152.641 143.85 7284.17 14.2588 0.660686 8.01426e+16 0 0 8.81851e+14 7.40755e+14 0 
153 1 23.36 8.24001e+16 3400.85 164.871 144.917 7228.62 13.1774 -1.61591 7.96488e+16 0 0 1.05822e+15 1.69315e+15 0 
217 1 22.57 7.96135e+16 2169.75 140.921 140.487 7324.08 10.8536 2.87119 7.80967e+16 0 0 6.70207e+14 8.46577e+14 0 
281 1 23.19 8.18005e+16 2041.88 181.282 144.598 7331.32 4.37685 -1.63715 8.03895e+16 0 0 4.58562e+14 9.52399e+14 0 
74 1 25.87 9.12539e+16 12231.5 305.23 202.669 6442.28 37.051 -1.75625 8.06364e+16 3.5274e+13 0 4.76199e+15 5.82022e+15 0 
138 1 31.44 1.10902e+17 16878.4 465.068 236.44 5830.99 81.7061 6.39918 9.26649e+16 0 0 8.71269e+15 9.52399e+15 0 
202 1 26.56 9.36878e+16 10635.4 361.627 190.737 6580.83 48.7213 3.79617 8.51515e+16 0 0 3.95069e+15 4.58562e+15 0 
266 1 28.97 1.02189e+17 14295.8 392.089 211.615 6194.13 76.4637 -3.5467 9.00193e+16 0 0 5.71439e+15 6.45515e+15 0 
82 1 24.51 8.64567e+16 7662.21 239.64 169.331 6862.27 41.7373 5.24482 8.00015e+16 0 0 2.61028e+15 3.84487e+15 0 
146 1 26.65 9.40053e+16 10733.9 306.316 204.392 6550.99 63.0214 2.22179 8.46224e+16 3.5274e+13 0 4.33871e+15 5.00891e+15 0 
210 1 23.93 8.44108e+16 6201.5 232.647 169.233 6995.33 40.4265 0.938635 8.00721e+16 3.5274e+13 0 2.04589e+15 2.25754e+15 0 
274 1 25.57 9.01957e+16 7986.73 261.241 168.674 6849.56 68.4739 -11.4763 8.46224e+16 3.5274e+13 0 2.39863e+15 3.13939e+15 0 
90 1 23.49 8.28587e+16 4122.97 192.176 157.849 7172.99 30.5348 8.43674 8.02132e+16 3.5274e+13 0 1.16404e+15 1.44624e+15 0 
154 1 24.62 8.68447e+16 5680.09 313.195 174.767 7023.71 48.9998 3.70059 8.27882e+16 0 0 1.97535e+15 2.08117e+15 0 
218 1 22.96 8.09892e+16 2562.31 205.65 151.689 7283.05 18.6709 4.18274 7.90138e+16 0 0 7.40755e+14 1.23459e+15 0 
282 1 23.42 8.26118e+16 4029.84 249.919 164.163 7173.5 45.8503 8.42394 7.9543e+16 0 0 1.19932e+15 1.86952e+15 0 
83 1 28.09 9.90848e+16 13646.6 408.82 235.185 6245.15 107.084 7.12056 8.71621e+16 1.05822e+14 0 5.64385e+15 6.17296e+15 0 
211 1 26.34 9.29118e+16 9139.22 288.535 182.179 6710.97 79.8717 -3.12213 8.46577e+16 0 0 3.77432e+15 4.4798e+15 0 
91 1 25.64 9.04426e+16 6846.5 270.785 193.192 6927.52 67.7768 3.79659 8.47635e+16 0 0 2.64555e+15 3.03357e+15 0 
219 1 24.37 8.59628e+16 4402.71 228.294 158.581 7145.41 50.7753 -0.54235 8.2894e+16 0 0 1.23459e+15 1.83425e+15 0 
75 1 36.48 1.2868e+17 21777.8 667.405 337.89 4886.76 124.306 0.106064 1.00602e+17 0 0 1.38627e+16 1.42154e+16 0 
203 1 31.97 1.12771e+17 17791 544.997 245.81 5656.17 117.885 -2.2226 9.41817e+16 0 0 8.57159e+15 1.00178e+16 0 
1731 1 17.69 1.248e+17 22905.1 612.344 281.077 4545.93 94.3994 -8.67608 9.27707e+16 3.5274e+14 0 1.45329e+16 1.71432e+16 0 
2243 1 20.37 1.43706e+17 23878.6 664.855 373.205 3994.31 118.279 12.5134 1.04834e+17 0 0 1.93302e+16 1.95418e+16 0 
267 1 38.17 1.34641e+17 21305.1 844.351 313.156 4814.01 221.509 0.515708 1.04376e+17 1.7637e+14 0 1.47445e+16 1.53442e+16 0 
147 1 30.98 1.09279e+17 16485.1 549.59 282.466 5805.22 178.486 7.29893 9.18889e+16 0 0 8.92433e+15 8.46577e+15 0 
275 1 27.11 9.56279e+16 11387.8 410.853 233.565 6444.8 128.965 -1.70897 8.53279e+16 3.5274e+13 0 5.71439e+15 4.55035e+15 0 
155 1 25.61 9.03368e+16 7801.39 359.036 179.872 6822.64 96.7814 3.67964 8.37406e+16 3.5274e+13 0 3.24521e+15 3.31576e+15 0 
283 1 23.93 8.44108e+16 5030.94 264.219 164.702 7069.91 58.5273 -0.187917 8.03895e+16 0 0 2.11644e+15 1.9048e+15 0 
651 1 25.71 1.81379e+17 22800.7 838.912 422.689 4148.64 164.099 1.13465 1.30373e+17 0 0 2.53973e+16 2.5609e+16 0 
1163 1 30.16 2.12773e+17 23014.8 1052.5 434.84 3337.28 208.407 -17.2002 1.4808e+17 2.82192e+14 0 3.40747e+16 3.03357e+16 0 
1675 1 21.26 1.49985e+17 22418.7 1003.64 402.773 4239.28 205.857 15.24 1.08644e+17 7.05481e+13 0 2.09528e+16 2.03178e+16 0 
2187 1 24.23 1.70938e+17 23086.6 1068.55 444.698 3673.3 240.292 10.7751 1.21695e+17 3.5274e+14 0 2.32103e+16 2.56795e+16 0 
1795 1 25.81 1.82085e+17 23696 900.74 382.009 3302 179.439 1.04188 1.26987e+17 2.11644e+14 0 2.7937e+16 2.69494e+16 0 
2307 1 31.71 2.23708e+17 20971.1 1133.29 520.026 2442.54 199.689 1.44521 1.45682e+17 1.41096e+14 0 3.90131e+16 3.8872e+16 0 
1292 2 30.49 2.15101e+17 19861.4 1434.49 488.919 3466.66 469.693 -8.92505 1.49421e+17 7.05481e+13 0 3.51329e+16 3.04768e+16 0 
2316 2 22.44 1.5831e+17 19944.2 1251.68 389.223 4358.61 436.457 22.2814 1.19438e+17 7.05481e+13 0 1.93302e+16 1.94713e+16 0 
5252 2 183.96 2.5956e+18 7149.34 1540.34 685.356 461.766 48.388 10.5237 1.58536e+18 1.97535e+15 0 5.55213e+17 4.5306e+17 0 
13444 2 160.46 2.26403e+18 4870.13 1302.94 633.044 144.312 130.866 0.388574 1.3716e+18 1.55206e+15 0 4.968e+17 3.94082e+17 0 
6276 2 142.06 2.00441e+18 3588.17 1181.43 619.33 16.7912 147.85 -11.2736 1.21159e+18 7.05481e+14 0 4.42195e+17 3.49918e+17 0 
10372 2 242.04 3.41509e+18 2497.43 1015.85 601.464 10.805 133.167 0.423206 2.17232e+18 3.8096e+15 0 7.0929e+17 5.29675e+17 0 
14468 2 127.3 1.79615e+18 4707.15 1180.99 609.663 137.517 150.157 -2.63204 1.11184e+18 5.64385e+14 0 3.67697e+17 3.16055e+17 0 
18564 2 200.26 2.82559e+18 2898.38 1116.65 603.761 54.4036 118.439 -2.61181 1.77527e+18 3.10412e+15 0 5.79623e+17 4.67593e+17 0 
5380 2 113.39 1.59989e+18 4785.76 1245.55 635.86 185.215 172.321 8.49074 9.75398e+17 5.64385e+14 0 3.44275e+17 2.79653e+17 0 
9476 2 179.85 2.53761e+18 3569.61 1113.27 584.353 111.076 158.353 -6.85043 1.57858e+18 9.87673e+14 0 5.56906e+17 4.01136e+17 0 
13572 2 98.67 1.3922e+18 6444.91 1284.23 607.512 337.407 226.104 -3.33346 8.62662e+17 5.64385e+14 0 3.05614e+17 2.23355e+17 0 
17668 2 156.7 2.21098e+18 4137.22 1145.33 617.895 153.565 191.06 0.00930954 1.42973e+18 2.68083e+15 0 4.43888e+17 3.3468e+17 0 
6404 2 79.8 1.12595e+18 6348.82 1257.92 639.213 349.815 300.214 -0.860442 6.96168e+17 2.68083e+15 0 2.46354e+17 1.80744e+17 0 
10500 2 118.2 1.66776e+18 4894.63 1210.19 599.751 226.956 277.284 -3.46461 1.07755e+18 5.64385e+14 0 3.32564e+17 2.57077e+17 0 
14596 2 63.36 8.93985e+17 8250.59 1232.68 592.176 570.321 361.054 10.6565 5.69041e+17 1.41096e+14 0 1.79333e+17 1.4547e+17 0 
18692 2 87.16 1.22979e+18 6540.98 1217.23 651.114 428.554 347.906 2.58958 7.77158e+17 2.82192e+15 0 2.56795e+17 1.9302e+17 0 
5260 2 50.33 7.10137e+17 10793.5 1323.43 616.025 957.853 413.609 1.67744 4.50802e+17 1.41096e+14 0 1.52807e+17 1.06386e+17 0 
9356 2 57.49 8.11162e+17 9973.42 1408.75 652.622 972.672 431.399 12.1729 5.1359e+17 5.64385e+14 0 1.62684e+17 1.34324e+17 0 
13452 2 35.83 5.05547e+17 13663.9 1512.47 618.092 1493.44 468.445 -3.90943 3.2184e+17 4.23288e+14 0 1.05681e+17 7.76029e+16 0 
17548 2 41.22 5.81598e+17 12327.4 1397.26 602.005 1379.55 510.227 18.1002 3.78702e+17 7.05481e+14 0 1.09914e+17 9.22769e+16 0 
6284 2 26.23 3.70095e+17 16318.1 1376.34 547.695 2017.86 482.979 7.86592 2.37606e+17 1.41096e+14 0 7.15357e+16 6.08124e+16 0 
10380 2 26.5 3.73905e+17 15516.9 1608.39 613.722 2013.65 532.51 35.1659 2.48753e+17 1.41096e+14 0 7.05481e+16 5.44631e+16 0 
14476 2 20.17 2.84591e+17 18225.8 1367.7 647.758 2492.65 483.176 10.2871 1.93866e+17 0 0 5.02302e+16 4.04946e+16 0 
18572 2 20.14 2.84168e+17 17208 1419.82 554.98 2419.13 535.155 -12.2344 1.84836e+17 2.82192e+14 0 5.44631e+16 4.45864e+16 0 
8 3 8.83 1.55735e+16 8131.47 3749.58 1022.96 4823.71 -180.594 5.14026 9.718e+15 0 0 3.06884e+15 2.78665e+15 0 
7 3 7.91 1.39509e+16 8861.42 3573.43 1060.65 4541.59 -337.471 -18.3323 8.65978e+15 0 0 2.68083e+15 2.61028e+15 0 
80 3 26.32 9.28413e+16 4669.02 1375.42 420.345 6542.83 12.9934 -4.79834 7.38991e+16 0 0 1.00531e+16 8.88906e+15 0 
144 3 23.23 8.19416e+16 4741.06 1507.85 457.165 6534.57 25.0413 -15.847 6.48337e+16 0 0 9.55926e+15 7.54864e+15 0 
208 3 28.73 1.01342e+17 4712.61 1417.73 411.306 6586.54 114.71 7.22044 8.21532e+16 3.5274e+13 0 1.03353e+16 8.81851e+15 0 
272 3 28.1 9.912e+16 4262.11 1386.77 431.827 6682.65 92.9852 12.0995 8.12714e+16 1.41096e+14 0 9.84146e+15 7.86611e+15 0 
88 3 27.3 9.62981e+16 3879.9 1034.71 325.508 6848.82 138.528 1.49026 8.33878e+16 0 0 6.94899e+15 5.96131e+15 0 
152 3 27.11 9.56279e+16 4017.77 1234.3 345.861 6826.82 134.489 -16.3535 8.28234e+16 0 0 7.09008e+15 5.71439e+15 0 
216 3 25.61 9.03368e+16 3466.81 790.354 279.802 6981.55 137.602 11.3732 8.13419e+16 3.5274e+13 0 5.04419e+15 3.91542e+15 0 
280 3 26.3 9.27707e+16 3048.48 698.628 288.415 7039.22 121.88 -1.36104 8.40933e+16 0 0 4.72672e+15 3.95069e+15 0 
96 3 25.21 8.89258e+16 2893.15 642.646 287.163 7113.42 135.098 0.402517 8.28234e+16 0 0 3.45686e+15 2.64555e+15 0 
160 3 25.98 9.16419e+16 2820.98 560.324 256.737 7113.88 129.471 5.40657 8.47635e+16 3.5274e+13 0 3.84487e+15 2.99829e+15 0 
224 3 24.3 8.57159e+16 2684.07 591.691 198.531 7179.3 111.291 -2.34645 8.15183e+16 0 0 2.46918e+15 1.72843e+15 0 
288 3 24.4 8.60686e+16 2104.69 543.218 195.578 7225.23 102.589 3.26724 8.2118e+16 0 0 2.08117e+15 1.86952e+15 0 
79 3 27.95 9.85909e+16 6042.23 1937.26 544.881 6158.19 43.4296 7.63304 7.1959e+16 7.05481e+13 0 1.43213e+16 1.22401e+16 0 
143 3 27.44 9.6792e+16 5656.9 1550.51 488.905 6330.91 24.7104 17.0446 7.48162e+16 0 0 1.23106e+16 9.66509e+15 0 
207 3 30.65 1.08115e+17 5357.6 1569.18 417.462 6508.79 164.834 0.861271 8.75854e+16 1.05822e+14 0 1.0688e+16 9.73563e+15 0 
271 3 28.93 1.02048e+17 5072.94 1416.82 408.446 6522.7 140.244 -9.43888 8.14478e+16 3.5274e+13 0 1.02295e+16 1.03353e+16 0 
87 3 28.21 9.95081e+16 5186.49 1279.63 341.001 6666.67 175.582 1.18236 8.53632e+16 0 0 7.86611e+15 6.27878e+15 0 
151 3 27.57 9.72505e+16 4282.39 1099.13 339.007 6820.01 144.833 -5.88958 8.36347e+16 7.05481e+13 0 6.94899e+15 6.59624e+15 0 
215 3 25.89 9.13245e+16 4339.46 699.465 284.068 6928.96 158.255 9.77159 8.34584e+16 0 0 4.19761e+15 3.6685e+15 0 
279 3 26.81 9.45697e+16 3683.34 907.458 279.236 6973.69 158.31 -1.82755 8.52573e+16 3.5274e+13 0 5.07946e+15 4.19761e+15 0 
95 3 24.98 8.81145e+16 3288.44 605.903 214.778 7099.44 122.54 10.2694 8.25765e+16 0 0 3.31576e+15 2.22226e+15 0 
159 3 25.59 9.02663e+16 3245.28 674.784 237.932 7088.99 135.979 3.85128 8.43755e+16 0 0 3.31576e+15 2.575e+15 0 
223 3 24.35 8.58923e+16 2651.45 474.485 216.782 7204.24 110.146 -4.22857 8.19416e+16 3.5274e+13 0 2.15172e+15 1.7637e+15 0 
287 3 23.28 8.2118e+16 2665.79 439.56 214.237 7191.18 120.283 -5.22227 7.81673e+16 0 0 1.72843e+15 2.22226e+15 0 
142 3 31.45 1.10937e+17 6390.39 1834.62 630.169 6070.65 70.2748 -27.1046 7.97899e+16 7.05481e+13 0 1.6473e+16 1.46035e+16 0 
270 3 32.01 1.12912e+17 6152.18 1433.01 456.76 6396.22 173.329 9.84028 8.95608e+16 3.5274e+13 0 1.24165e+16 1.08997e+16 0 
150 3 28.91 1.01977e+17 5653.37 1054.55 341.868 6694.06 200.908 -0.210943 8.74091e+16 0 0 7.30173e+15 7.26645e+15 0 
278 3 26.66 9.40406e+16 5013.64 799.528 313.718 6880.07 176.969 8.40468 8.52221e+16 0 0 4.44453e+15 4.37398e+15 0 
158 3 25.25 8.90669e+16 3945.81 510.462 225.919 7061.56 129.134 5.81141 8.33173e+16 0 0 3.20994e+15 2.53973e+15 0 
286 3 25.13 8.86437e+16 3319.64 485.857 191.829 7143.34 101.451 7.14097 8.367e+16 3.5274e+13 0 2.78665e+15 2.15172e+15 0 
94 3 24.94 8.79734e+16 5461.16 548.116 222.816 6933.08 174.69 6.3601 8.14125e+16 0 0 3.45686e+15 3.10412e+15 0 
222 3 24.26 8.55748e+16 3945.78 460.478 206.441 7105.89 119.266 -6.03062 8.09539e+16 0 0 2.15172e+15 2.46918e+15 0 
6 3 6.26 1.18925e+16 10062.9 3732.26 981.146 3803.36 -605.047 34.3917 7.01011e+15 0 0 2.58367e+15 2.29871e+15 0 
206 3 33.75 1.1905e+17 8022.71 1588.99 482.87 6084.14 256.026 0.335816 9.28413e+16 7.05481e+13 0 1.43918e+16 1.17463e+16 0 
86 3 29.3 1.03353e+17 7605.24 1244.69 398.925 6461.16 265.321 1.71326 8.74091e+16 0 0 8.32467e+15 7.61919e+15 0 
214 3 27.64 9.74974e+16 6638.02 910.678 295.707 6713.56 224.379 0.949796 8.63156e+16 0 0 6.45515e+15 4.72672e+15 0 
1165 3 18.32 1.29244e+17 8039.13 2492.8 741.809 5481.45 59.6403 11.6811 8.43755e+16 0 0 2.44096e+16 2.04589e+16 0 
2189 3 19.8 1.39685e+17 9074.78 2413.82 643.76 5480.97 249.198 -14.6952 9.46755e+16 7.05481e+13 0 2.49035e+16 2.00357e+16 0 
1293 3 19.59 1.38204e+17 9832.48 1950.68 525.895 5800.02 289.491 -0.878286 1.03282e+17 7.05481e+13 0 1.95418e+16 1.53089e+16 0 
2317 3 16.7 1.17815e+17 10166.5 1297.73 429.111 5954.76 321.46 14.8771 9.43228e+16 1.41096e+14 0 1.12877e+16 1.20637e+16 0 
590 3 15.81 1.11537e+17 7483.78 2389.44 664.734 5739.73 41.2428 -15.2538 7.56981e+16 7.05481e+13 0 1.91185e+16 1.66493e+16 0 
1102 3 14.91 1.05187e+17 6803.39 2108.6 540.223 5934.23 25.8135 -5.15208 7.28762e+16 7.05481e+13 0 1.72137e+16 1.50267e+16 0 
1614 3 18.1 1.27692e+17 7839.03 2009.73 714.818 5805.67 181.182 -5.88609 9.00899e+16 0 0 2.06e+16 1.70021e+16 0 
2126 3 17.54 1.23741e+17 6669.89 1919.19 570.894 5978.03 144.968 6.51971 8.61392e+16 7.05481e+13 0 1.89774e+16 1.85541e+16 0 
5 3 167.09 2.85757e+18 2864.98 977.086 577.28 96.9476 185.892 -2.99762 1.9067e+18 2.39428e+15 0 5.51711e+17 3.96766e+17 0 
5 3 2.27 1.61101e+16 8745.09 2920.18 1127.29 2599.7 -645.058 144.495 8.37441e+15 7.09696e+13 0 4.96787e+15 2.69684e+15 0 
85 3 33.82 1.19297e+17 14874.7 1221.77 397.742 5608.46 343.071 4.91627 9.68272e+16 3.5274e+13 0 1.22754e+16 1.01589e+16 0 
149 3 31.29 1.10372e+17 10414 1208.38 355.659 6211.63 291.867 -5.45341 9.29824e+16 0 0 9.13598e+15 8.25412e+15 0 
213 3 29.51 1.04094e+17 10877.7 783.236 278.17 6334.6 230.466 -0.383728 9.07601e+16 3.5274e+13 0 7.12536e+15 6.17296e+15 0 
277 3 27.85 9.82382e+16 8684.79 887.669 288.539 6527.19 224.212 2.32661 8.64214e+16 0 0 5.5733e+15 6.2435e+15 0 
93 3 26.01 9.17478e+16 6896.41 512.816 229.935 6836 150.537 5.81147 8.47282e+16 3.5274e+13 0 3.73905e+15 3.24521e+15 0 
157 3 26.86 9.47461e+16 6644.12 700.357 250.674 6819.97 167.365 -12.1058 8.67389e+16 0 0 3.91542e+15 4.09179e+15 0 
221 3 24.85 8.7656e+16 5235.75 386.658 180.28 7021.46 118.342 5.16261 8.24354e+16 0 0 2.99829e+15 2.22226e+15 0 
285 3 24.55 8.65978e+16 4404.71 450.056 201.127 7069.83 117.211 2.28133 8.19416e+16 0 0 2.50446e+15 2.15172e+15 0 
2125 3 30.57 2.15665e+17 15304.4 2222.58 637.436 3547.16 525.52 -0.88696 1.44624e+17 0 0 3.83782e+16 3.26638e+16 0 
653 3 21.03 1.48363e+17 9702.02 2373.47 763.477 5162.98 117.23 -6.6173 9.92611e+16 2.11644e+14 0 2.39863e+16 2.49035e+16 0 
1677 3 21.15 1.49209e+17 12207.7 2464.38 693.002 4884.39 375.026 13.5008 1.03353e+17 0 0 2.4974e+16 2.08822e+16 0 
717 3 29.99 2.11574e+17 18496.1 1507.9 570.834 3834.7 507.892 0.557506 1.50761e+17 1.41096e+14 0 3.13233e+16 2.9348e+16 0 
1229 3 25.31 1.78557e+17 16332.6 1770.67 595.477 4510.63 492.629 17.2403 1.28468e+17 2.82192e+14 0 2.52562e+16 2.45507e+16 0 
1741 3 22.45 1.5838e+17 18013.7 1498.02 491.797 4599.47 426.904 8.89848 1.15134e+17 1.41096e+14 0 2.44096e+16 1.86952e+16 0 
2253 3 20.35 1.43565e+17 15809.5 1436.13 510.237 4977.94 455.079 -5.10079 1.05046e+17 7.05481e+13 0 2.2011e+16 1.64377e+16 0 
781 3 21.33 1.50479e+17 13153.8 1972.66 622.819 5169.42 405.247 18.5075 1.10619e+17 0 0 2.27165e+16 1.71432e+16 0 
1805 3 18.38 1.29667e+17 13065.8 1678.26 444.285 5439.62 364.43 -6.85199 9.77796e+16 7.05481e+13 0 1.57322e+16 1.6085e+16 0 
4685 3 67.15 9.47461e+17 8276.2 1311.79 631.086 828.941 454.941 1.64411 6.10805e+17 1.41096e+14 0 1.85683e+17 1.50832e+17 0 
8781 3 68.76 9.70177e+17 7939.06 1433.86 642.746 1031.06 470.703 -2.94175 6.2562e+17 4.23288e+14 0 1.97111e+17 1.47022e+17 0 
12877 3 41.17 5.80893e+17 12241.7 1704.42 664.943 1567.31 544.851 4.04456 3.66286e+17 4.23288e+14 0 1.20496e+17 9.36878e+16 0 
16973 3 35.17 4.96235e+17 11764.5 1711.29 658.803 1772.94 566.482 -13.1984 3.22546e+17 2.82192e+14 0 9.28413e+16 8.05659e+16 0 
5197 3 22.99 3.29397e+17 13031.9 2051.48 683.732 2562.52 316.889 -41.7665 2.21508e+17 0 0 5.90307e+16 4.88579e+16 0 
9293 3 12.5 1.7637e+17 10837.2 3372.9 790.418 4472.8 77.7637 -29.4737 1.06951e+17 1.41096e+14 0 3.8096e+16 3.11822e+16 0 
13389 3 23.33 3.29177e+17 14246.5 2198.02 794.033 3023.09 500.335 18.4428 2.18417e+17 0 0 6.06713e+16 5.00891e+16 0 
17485 3 15.63 2.20533e+17 12799.3 2200.37 754.406 4123.19 344.399 4.90412 1.42225e+17 1.41096e+14 0 4.55741e+16 3.25932e+16 0 
5709 3 27.23 3.84205e+17 15317 1506.53 677.81 2156.06 573.179 -12.5991 2.55102e+17 0 0 7.02659e+16 5.88371e+16 0 
9805 3 23.25 3.28049e+17 15587.7 1751.05 589.103 2486.89 637.284 -11.0724 2.20251e+17 4.23288e+14 0 6.06713e+16 4.67028e+16 0 
13901 3 18.48 2.60746e+17 15506.6 1792.79 728.48 2309.44 611.769 -33.3358 1.67058e+17 7.05481e+14 0 4.93837e+16 4.35987e+16 0 
17997 3 19.13 2.69917e+17 17695.3 1538.06 601.104 3325.45 525.112 -8.36325 1.86952e+17 0 0 4.82549e+16 3.47097e+16 0 