ITEM: TIMESTEP
20000
ITEM: NUMBER OF CELLS
246
ITEM: BOX BOUNDS oo ao pp
-10 10
0 10
-0.5 0.5
ITEM: CELLS id proc f_avg_n f_avg_nrho f_avg_temp_tra f_avg_temp_rot f_avg_temp_vib f_avg_vel[1] f_avg_vel[2] f_avg_vel[3] f_avg_nrho_CO2 f_avg_nrho_O2 f_avg_nrho_C2 f_avg_nrho_CO f_avg_nrho_O f_avg_nrho_C 
65 0 24.4471 8.62349e+16 6486.59 198.638 156.095 6990.87 13.3278 -0.110568 8.15133e+16 1.51174e+13 0 2.09629e+15 2.61028e+15 0 
129 0 26.9257 9.49779e+16 9959.83 315.958 178.83 6670.24 20.4323 -1.11046 8.64012e+16 1.00783e+13 0 3.87007e+15 4.69649e+15 0 
66 0 29.3786 1.0363e+17 13855.8 410.775 213.97 6249.31 28.0557 -3.68806 9.05182e+16 2.01566e+13 0 6.03186e+15 7.05985e+15 0 
130 0 34.9386 1.23242e+17 19170 558.433 272.563 5487.32 34.8676 1.89485 1.00264e+17 3.5274e+13 0 1.1071e+16 1.18722e+16 0 
579 0 30.0043 2.11674e+17 16238.9 617.52 263.895 5861.39 53.7886 -7.5372 1.76239e+17 2.51957e+14 0 1.64276e+16 1.87557e+16 0 
1091 0 32.6943 2.30652e+17 19438.7 705.454 292.844 5341.34 66.7564 13.3197 1.83304e+17 3.02349e+13 0 2.21017e+16 2.52159e+16 0 
1603 0 17.6471 1.24497e+17 23861.4 745.289 360.869 4045.77 46.1763 -1.40673 8.99589e+16 6.04698e+13 0 1.72641e+16 1.72137e+16 0 
2115 0 21.7257 1.53271e+17 23838.1 869.502 423.345 3289.43 61.8486 -1.84569 1.05096e+17 4.03132e+13 0 2.41375e+16 2.39964e+16 0 
707 0 21.98 1.55065e+17 21453.3 709.47 310.762 4935.37 64.5597 -7.18615 1.18591e+17 3.02349e+13 0 1.76874e+16 1.87557e+16 0 
1219 0 24.76 1.74677e+17 23400.8 818.962 355.697 4224.29 90.4988 3.48031 1.28015e+17 4.03132e+13 0 2.30088e+16 2.36134e+16 0 
643 0 39 2.75137e+17 21601.9 913.32 358.99 4727.52 59.5382 -7.65222 2.06091e+17 9.07047e+13 0 3.47097e+16 3.42461e+16 0 
1667 0 27.6929 1.95368e+17 22042.8 1022.72 456.991 2581.5 63.1421 -2.26335 1.25858e+17 6.04698e+13 0 3.53244e+16 3.41251e+16 0 
2179 0 37.2986 2.63134e+17 19076.7 1123.74 517.953 1873.83 88.2875 2.68082 1.63087e+17 1.71331e+14 0 5.12884e+16 4.85875e+16 0 
771 0 29.75 2.09881e+17 23729.4 931.288 404.381 3544.43 106.874 -0.538122 1.47395e+17 1.10861e+14 0 3.04062e+16 3.19684e+16 0 
1283 0 38.4357 2.71157e+17 21881.7 1152.24 487.445 2746.89 132.218 -0.485904 1.77761e+17 1.31018e+14 0 4.76703e+16 4.55942e+16 0 
5251 0 28.9029 4.07808e+17 18466.6 931.12 372.559 5302.03 61.4696 6.23371 3.14362e+17 1.00783e+14 0 4.59973e+16 4.73478e+16 0 
9347 0 31.3857 4.4284e+17 21030.7 969.194 394.408 4741.75 56.6137 25.2577 3.28532e+17 1.41096e+14 0 5.86557e+16 5.55113e+16 0 
13443 0 19.7357 2.78463e+17 22918 1053.13 474.985 3323.47 42.4988 -8.33192 1.87436e+17 1.00783e+14 0 4.56345e+16 4.52919e+16 0 
17539 0 22.7971 3.21659e+17 22314.3 1197.11 503.745 2972.82 69.7891 16.2032 2.12511e+17 1.41096e+14 0 5.66803e+16 5.23265e+16 0 
4676 0 34.2943 4.83879e+17 21740.4 1207.53 453.844 4227.85 43.2857 11.6955 3.44234e+17 2.62036e+14 0 7.29064e+16 6.64764e+16 0 
8772 0 38.6757 5.45699e+17 21880.7 1383.27 496.786 3667.68 38.8289 10.3961 3.66366e+17 5.44228e+14 0 9.44135e+16 8.43755e+16 0 
12868 0 27.2843 3.84971e+17 21247.6 1254.72 519.385 2656.68 70.5198 1.80061 2.46656e+17 2.01566e+14 0 6.91573e+16 6.89557e+16 0 
16964 0 32.0714 4.52515e+17 19067.9 1318.09 563.474 2065.91 77.007 -7.8746 2.82293e+17 3.02349e+14 0 8.80642e+16 8.18559e+16 0 
5188 0 46.22 6.52146e+17 21179.9 1592.98 537.64 3123.24 53.4424 5.14842 4.15951e+17 4.23288e+14 0 1.24245e+17 1.11526e+17 0 
9284 0 58.2386 8.21724e+17 19715.6 1583.71 611.764 2598.72 42.5642 -2.08629 5.07966e+17 7.86107e+14 0 1.61112e+17 1.5186e+17 0 
13380 0 39.65 5.59446e+17 16923.5 1447.45 585.68 1685.7 86.5995 -4.62355 3.39215e+17 4.23288e+14 0 1.14651e+17 1.05157e+17 0 
17476 0 50.2886 7.09552e+17 14381.1 1417.48 626.991 1268.33 85.4509 -1.05619 4.21112e+17 6.65168e+14 0 1.52827e+17 1.34928e+17 2.01566e+13 
5700 0 24.1186 3.40304e+17 16523.7 1157.46 526.692 1437.89 87.719 -7.95382 2.06484e+17 2.41879e+14 0 7.0669e+16 6.29087e+16 0 
9796 0 29.9257 4.2224e+17 14540.5 1297.29 572.187 1153.76 98.2293 7.36683 2.54537e+17 2.82192e+14 0 8.95759e+16 7.78448e+16 0 
13892 0 24.2286 3.41856e+17 16707.1 1208.02 519.132 1461.92 111.437 -3.76895 2.06343e+17 3.62819e+14 0 7.03264e+16 6.48236e+16 0 
17988 0 28.8757 4.07425e+17 14076.9 1248.04 581.331 1082.09 139.985 0.63312 2.44358e+17 3.02349e+14 0 8.45569e+16 7.82076e+16 0 
6212 0 37.3071 5.26389e+17 12184.9 1270.09 593.6 836.09 102.315 4.00203 3.15652e+17 3.22505e+14 0 1.10277e+17 1.00138e+17 0 
10308 0 48.8114 6.8871e+17 9744.45 1338.5 620.909 551.837 109.862 0.253239 4.08756e+17 4.23288e+14 0 1.50711e+17 1.28821e+17 0 
14404 0 37.1571 5.24273e+17 11692.4 1352.68 587.893 783.173 143.385 3.45499 3.11198e+17 3.62819e+14 0 1.11728e+17 1.00985e+17 0 
18500 0 47.1929 6.65873e+17 9663.71 1298.22 597.21 548.343 149.723 10.0985 3.94968e+17 6.04698e+14 0 1.4412e+17 1.2618e+17 0 
4804 0 25.2229 3.55885e+17 19934.8 1172.91 522.761 2178.05 135.1 8.46508 2.27245e+17 2.82192e+14 0 6.61741e+16 6.21831e+16 0 
8900 0 29.98 4.23006e+17 18093.2 1232.96 542.505 1767.7 154.538 -3.2482 2.63507e+17 2.62036e+14 0 8.16342e+16 7.76029e+16 0 
12996 0 22.9657 3.24037e+17 19627.1 1283.19 530.6 2106.17 196.845 9.48527 2.06484e+17 2.21723e+14 0 6.05706e+16 5.6761e+16 0 
17092 0 27.4671 3.87551e+17 17586.7 1215.22 556.581 1728.75 196.851 6.57241 2.40045e+17 8.06264e+13 0 7.82479e+16 6.91774e+16 0 
5316 0 35.9014 5.06555e+17 14975.1 1339.82 586.318 1306.86 179.83 0.212144 3.07428e+17 3.22505e+14 0 1.06124e+17 9.268e+16 0 
9412 0 46.4857 6.55896e+17 12862.6 1313.71 599.196 1029.06 190.253 2.8937 3.93457e+17 5.64385e+14 0 1.3896e+17 1.22915e+17 0 
13508 0 33.0029 4.65658e+17 15314.7 1368.15 579.335 1363.79 226.179 -1.81075 2.84631e+17 2.01566e+14 0 9.67315e+16 8.40933e+16 0 
17604 0 40.9386 5.77627e+17 13379.2 1300.81 589.682 1088.54 233.397 0.403469 3.50443e+17 4.03132e+14 0 1.18924e+17 1.07858e+17 0 
4740 0 73.8786 1.0424e+18 16224.5 1719.41 660.95 1810.14 39.5798 7.95694 6.2044e+17 5.44228e+14 0 2.18135e+17 2.03279e+17 0 
8836 0 105.003 1.48155e+18 12489.4 1759.18 700.382 1186.09 39.9852 -1.45774 8.67197e+17 1.41096e+15 0 3.26738e+17 2.86203e+17 0 
12932 0 68.9843 9.73342e+17 11051.5 1477.83 650.322 835.673 85.8795 -1.91327 5.68436e+17 5.84541e+14 0 2.14486e+17 1.89835e+17 0 
17028 0 99.8929 1.40945e+18 8198.88 1474.22 657.84 502.06 96.8968 2.36779 8.28013e+17 1.33034e+15 0 3.17789e+17 2.62318e+17 0 
5764 0 66.0429 9.31839e+17 7814.51 1335.92 642.841 364.158 116.922 -0.720344 5.47433e+17 7.25637e+14 0 2.10616e+17 1.73065e+17 0 
9860 0 91.8257 1.29563e+18 5763.18 1272.21 627.328 180.707 136.571 1.84031 7.69478e+17 8.2642e+14 0 2.91585e+17 2.33736e+17 0 
13956 0 62.95 8.882e+17 7702.32 1274.31 607.285 349.432 161.973 1.31009 5.25825e+17 9.67516e+14 0 1.94894e+17 1.66514e+17 0 
18052 0 87.03 1.22796e+18 5861.11 1316.24 621.692 206.665 167.511 0.899542 7.31785e+17 1.3908e+15 0 2.72316e+17 2.22468e+17 0 
4868 0 58.4314 8.24445e+17 10156.6 1347.9 606.634 698.453 193.922 0.661112 4.94985e+17 8.06264e+14 0 1.76834e+17 1.51819e+17 0 
8964 0 79.0214 1.11496e+18 7733.87 1326.46 619.385 447.004 199.739 5.19477 6.74137e+17 1.10861e+15 0 2.42423e+17 1.97293e+17 0 
13060 0 53.1957 7.50571e+17 10905.1 1308.31 617.258 808.084 246.313 -2.37427 4.49613e+17 5.24071e+14 0 1.60285e+17 1.40149e+17 0 
17156 0 70.8786 1.00007e+18 8473.18 1321.96 633.118 545.485 240.332 1.1548 6.04537e+17 7.45794e+14 0 2.15212e+17 1.79575e+17 0 
193 0 24.4857 8.6371e+16 6528.36 219.12 158.804 6988.18 7.95824 0.749917 8.1609e+16 5.03915e+12 0 2.07613e+15 2.68083e+15 0 
5252 0 183.803 2.59339e+18 7540.25 1646.85 700.461 532.817 51.8252 0.313777 1.54972e+18 2.27769e+15 0 5.79341e+17 4.6205e+17 0 
84 1 34.2671 1.20874e+17 17889.2 796.392 318.062 5457.73 246.108 2.45988 9.87774e+16 5.54306e+13 0 1.11919e+16 1.08493e+16 0 
148 1 35.6429 1.25727e+17 17227.9 978.438 355.576 5388.27 303.957 0.349579 1.01267e+17 6.55089e+13 0 1.25727e+16 1.18218e+16 0 
212 1 28.6557 1.0108e+17 12452.6 564.961 248.315 6282.77 174.762 -2.68563 8.87444e+16 1.00783e+13 0 5.93612e+15 6.38964e+15 0 
276 1 28.9757 1.02209e+17 12010.4 691.414 271.419 6262.32 207.563 -1.01122 8.87293e+16 4.03132e+13 0 6.85828e+15 6.58113e+15 0 
92 1 25.9 9.13598e+16 8485.34 419.025 210.075 6729.33 124.846 -2.40249 8.37355e+16 5.03915e+12 0 3.6937e+15 3.9255e+15 0 
156 1 26.0271 9.18082e+16 7967.81 508.269 221.601 6752.96 142.21 -3.17931 8.40278e+16 3.02349e+13 0 3.85495e+15 3.89526e+15 0 
220 1 24.2186 8.54287e+16 5619.03 323.951 184.24 7010.59 93.1563 0.243398 8.06364e+16 0 0 2.31297e+15 2.47926e+15 0 
284 1 24.6814 8.70614e+16 5211.83 345.539 189.353 7028.13 97.967 1.77457 8.1997e+16 2.51957e+13 0 2.53973e+15 2.49942e+15 0 
588 1 37.0843 2.61622e+17 21230.7 1196.01 507.577 2658.44 274.436 0.540154 1.74193e+17 2.11644e+14 0 4.52515e+16 4.1966e+16 0 
1612 1 28.77 2.02967e+17 22184 1118.79 469.32 3104.53 312.94 3.18249 1.39091e+17 1.41096e+14 0 3.30064e+16 3.07287e+16 0 
2124 1 34.9 2.46213e+17 20542.3 1211.01 519.971 2633 373.464 -5.14281 1.64972e+17 1.81409e+14 0 4.2863e+16 3.81967e+16 0 
716 1 24.7286 1.74455e+17 22455.9 957.942 406.848 4010.01 288.144 6.65079 1.27007e+17 1.41096e+14 0 2.4843e+16 2.24645e+16 0 
1228 1 27.5514 1.9437e+17 22148.5 1050.83 442.653 3754.61 352.555 2.13391 1.40058e+17 1.2094e+14 0 2.82394e+16 2.59516e+16 0 
1740 1 19.9243 1.40562e+17 21439.7 880.767 368.556 4622.4 285.03 -0.144639 1.07183e+17 4.03132e+13 0 1.67501e+16 1.65889e+16 0 
2252 1 21.2943 1.50227e+17 21483.2 1065.78 400.488 4289.23 343.338 -4.18272 1.1198e+17 4.03132e+13 0 1.99349e+16 1.8272e+16 0 
780 1 30.8243 2.17459e+17 20959 1201.71 483.254 3435.65 426.034 -4.31741 1.51557e+17 1.00783e+14 0 3.49616e+16 3.08396e+16 0 
1804 1 22.3457 1.57645e+17 20797.1 1222.66 411.521 4194.69 393.994 -7.65804 1.15034e+17 9.07047e+13 0 2.19405e+16 2.05799e+16 0 
5828 1 20.8643 2.94387e+17 19491.7 1097.38 529.822 2037.12 218.365 -7.82821 1.86368e+17 1.41096e+14 0 5.53903e+16 5.24878e+16 0 
9924 1 24.83 3.50342e+17 17214.1 1249.02 562.783 1645.38 238.769 2.6194 2.18336e+17 3.02349e+14 0 6.90766e+16 6.26265e+16 0 
14020 1 19.3486 2.73001e+17 20264.1 1139.33 510.306 2199.1 234.205 -0.862086 1.80119e+17 2.21723e+14 0 4.85774e+16 4.40825e+16 0 
18116 1 21.5943 3.04687e+17 17992.3 1246.84 515.389 1789.2 270.846 10.8674 1.92536e+17 2.21723e+14 0 5.89782e+16 5.29514e+16 0 
6340 1 29.7443 4.1968e+17 15814.7 1241.88 582.54 1437.46 253.323 4.09143 2.58004e+17 5.24071e+14 0 8.48391e+16 7.63129e+16 0 
10436 1 36.49 5.1486e+17 13217.1 1274.34 603.106 1074.55 272.057 -1.14416 3.1146e+17 5.03915e+14 0 1.0816e+17 9.4736e+16 0 
14532 1 26.7957 3.78077e+17 16131.9 1289.46 570.505 1520.92 281.818 -0.479906 2.34703e+17 4.63602e+14 0 7.56678e+16 6.72424e+16 0 
18628 1 31.6171 4.46106e+17 14230 1315.23 574.193 1234.38 311.576 -2.21565 2.77073e+17 4.23288e+14 0 9.03418e+16 7.8268e+16 0 
5196 1 24.0171 3.38873e+17 18302.5 1326.82 565.007 1958.96 318.586 -5.11479 2.17873e+17 2.41879e+14 0 6.41987e+16 5.65594e+16 0 
9292 1 27.7757 3.91905e+17 16603.7 1414.25 571.332 1699.27 339.861 -2.60358 2.46777e+17 2.82192e+14 0 7.72602e+16 6.75851e+16 0 
13388 1 20.9686 2.95858e+17 19791.7 1276.57 536.328 2400.04 332.599 -1.99237 1.92999e+17 1.41096e+14 0 5.46445e+16 4.80735e+16 0 
17484 1 23.8114 3.3597e+17 18317.5 1266.01 540.636 2071.92 374.883 -4.7132 2.15998e+17 1.2094e+14 0 6.28886e+16 5.69625e+16 0 
4748 1 33.43 4.71684e+17 14995.3 1328.29 581.8 1446.7 372.791 1.28919 2.98237e+17 3.42662e+14 0 9.51391e+16 7.79657e+16 0 
8844 1 39.7629 5.61039e+17 12862.4 1316.87 600.427 1180.63 404.668 -0.252623 3.50019e+17 4.43445e+14 0 1.14449e+17 9.61268e+16 0 
12940 1 26.7214 3.77029e+17 16487.6 1345.21 604.747 1777.52 407.688 -8.53396 2.38936e+17 2.01566e+14 0 7.5688e+16 6.22032e+16 0 
17036 1 31.28 4.41349e+17 15021.7 1356.76 583.967 1577.12 453.61 -4.99198 2.7931e+17 3.62819e+14 0 8.74393e+16 7.42367e+16 0 
5772 1 21.8214 3.07892e+17 17782.3 1336.2 569.706 2064.22 437.313 20.2169 1.9955e+17 1.41096e+14 0 5.70633e+16 5.11373e+16 0 
9868 1 23.4829 3.31334e+17 16416.1 1350.05 588.501 1855.35 485.811 2.05668 2.13055e+17 2.01566e+14 0 6.31103e+16 5.4967e+16 0 
13964 1 18.1771 2.56472e+17 19551.6 1372.26 540.392 2525.14 438.202 5.55254 1.69799e+17 1.41096e+14 0 4.62997e+16 4.02326e+16 0 
18060 1 19.3557 2.73102e+17 18384.3 1426.1 566.899 2335.64 489.588 -3.29044 1.80079e+17 3.02349e+14 0 4.89402e+16 4.37801e+16 0 
5892 1 46.1314 6.50897e+17 10927.7 1292.93 619.598 794.772 295.69 -0.456721 3.95855e+17 4.63602e+14 0 1.35835e+17 1.18742e+17 0 
9988 1 59.4114 8.38272e+17 8149.73 1281.59 607.857 490.591 304.582 1.0637 5.14739e+17 7.45794e+14 0 1.75362e+17 1.47425e+17 0 
14084 1 39.0886 5.51525e+17 11649.6 1349.53 594.346 920.375 336.219 0.138863 3.36978e+17 4.43445e+14 0 1.14066e+17 1.00037e+17 0 
18180 1 49.4786 6.98124e+17 10004.9 1346.09 598.111 769.241 349.465 -5.18452 4.25203e+17 2.82192e+14 0 1.46982e+17 1.25656e+17 0 
73 1 24.2914 8.56857e+16 6373.43 209.898 154.362 6996.12 13.3925 -2.50512 8.10194e+16 0 0 1.94511e+15 2.72114e+15 0 
137 1 25.9743 9.16218e+16 9197.98 271.217 178.381 6743.29 25.6865 1.85734 8.44259e+16 0 0 3.18978e+15 4.00612e+15 0 
201 1 24.1371 8.51414e+16 5286.73 196.874 158.271 7085.11 17.5261 0.268909 8.1357e+16 5.03915e+12 0 1.71835e+15 2.06101e+15 0 
265 1 24.5857 8.67237e+16 7305.32 243.482 165.232 6909.91 26.1794 0.289814 8.12109e+16 1.00783e+13 0 2.48934e+15 3.01341e+15 0 
81 1 23.8229 8.40328e+16 4311.53 175.981 147.824 7163.47 14.7028 0.0898841 8.09892e+16 0 0 1.30514e+15 1.73851e+15 0 
145 1 24.2629 8.55849e+16 6043.48 238.604 163.543 7017.55 27.713 -0.687949 8.11353e+16 0 0 1.84937e+15 2.6002e+15 0 
209 1 23.33 8.22943e+16 3420.94 170.48 150.054 7229.44 17.8393 0.0975964 7.98554e+16 5.03915e+12 0 1.03303e+15 1.40088e+15 0 
273 1 24.1214 8.5086e+16 4592.85 213.255 156.471 7133.81 25.2701 1.02098 8.17249e+16 2.01566e+13 0 1.48655e+15 1.85441e+15 0 
89 1 23.2414 8.19819e+16 2546.86 166.719 145.707 7296.07 16.0108 1.37352 8.01678e+16 0 0 8.21381e+14 9.92712e+14 0 
153 1 23.2271 8.19315e+16 3468.63 176.634 148.955 7222.77 21.416 0.560003 7.93666e+16 0 0 1.159e+15 1.40592e+15 0 
217 1 22.8371 8.05558e+16 2089.05 157.575 143.046 7330.86 11.9718 1.76516 7.91348e+16 0 0 6.45011e+14 7.76029e+14 0 
281 1 23.2886 8.21482e+16 2718.71 178.907 148.706 7279.74 20.2003 -0.309254 8.02031e+16 0 0 8.51616e+14 1.0935e+15 0 
74 1 27.1271 9.56884e+16 12873.6 365.799 208.208 6365.62 43.4013 0.170456 8.47786e+16 1.51174e+13 0 5.02907e+15 5.86557e+15 0 
138 1 31.1343 1.09823e+17 17523.6 521.524 251.018 5745.66 75.1299 2.09568 9.19443e+16 4.53523e+13 0 8.64718e+15 9.18637e+15 0 
202 1 26.5329 9.35921e+16 10642.1 349.056 188.796 6589.22 46.9413 -0.57045 8.49651e+16 2.51957e+13 0 3.89526e+15 4.70656e+15 0 
266 1 28.6043 1.00899e+17 14307.2 429.431 219.703 6180.2 78.1929 -2.57294 8.84169e+16 1.00783e+13 0 5.95627e+15 6.51562e+15 0 
82 1 25.2657 8.91224e+16 8198.76 278.311 173.101 6820.07 44.5791 0.668005 8.27327e+16 1.51174e+13 0 3.01341e+15 3.36111e+15 0 
146 1 26.9286 9.49879e+16 11204.2 368.004 200.989 6519.73 76.2879 -0.691527 8.57764e+16 2.51957e+13 0 4.46469e+15 4.72168e+15 0 
210 1 24.4014 8.60737e+16 6519.4 253.217 168.138 6967.28 42.4154 -0.384967 8.12663e+16 1.51174e+13 0 2.20715e+15 2.58508e+15 0 
274 1 25.3586 8.94499e+16 8185.83 307.965 181.53 6815.6 65.8278 -0.403516 8.30905e+16 1.00783e+13 0 3.01845e+15 3.33088e+15 0 
90 1 24.0043 8.46728e+16 4349.57 220.611 154.188 7153.08 32.9671 1.92416 8.14729e+16 5.03915e+12 0 1.37065e+15 1.82417e+15 0 
154 1 24.31 8.57512e+16 5479.71 265.379 171.844 7047.92 48.3899 1.43251 8.13016e+16 0 0 1.91488e+15 2.53469e+15 0 
218 1 23.2843 8.21331e+16 2961.96 205.308 148.721 7257.68 23.6098 1.95302 7.9805e+16 0 0 9.87673e+14 1.34041e+15 0 
282 1 23.6729 8.35037e+16 4280.93 235.107 155.513 7154 44.5031 -0.589172 8.02132e+16 5.03915e+12 0 1.53694e+15 1.74858e+15 0 
83 1 28.7057 1.01257e+17 13892 457.429 225.707 6198.33 109.084 0.457331 8.86991e+16 3.02349e+13 0 6.31405e+15 6.21327e+15 0 
211 1 26.2729 9.2675e+16 10065.2 367.538 196.488 6616.51 89.539 -1.39365 8.39724e+16 2.51957e+13 0 4.18249e+15 4.49492e+15 0 
91 1 24.8743 8.77416e+16 6916.97 297.869 180.269 6914.52 71.6462 -2.20525 8.2254e+16 0 0 2.64555e+15 2.84208e+15 0 
219 1 24.0543 8.48492e+16 4521.24 253.792 162.962 7126.95 51.0627 4.64795 8.1221e+16 1.00783e+13 0 1.52686e+15 2.09125e+15 0 
75 1 37.24 1.31361e+17 21705.5 681.815 319.96 4889.88 126.84 -1.73843 1.02275e+17 4.03132e+13 0 1.46438e+16 1.44019e+16 0 
203 1 32.61 1.15029e+17 18199.4 586.947 264.885 5580.22 129.565 2.74641 9.50585e+16 3.02349e+13 0 9.50887e+15 1.0431e+16 0 
1731 1 17.6571 1.24568e+17 22912.1 707.413 316.899 4527.6 92.6634 0.337072 9.32142e+16 1.2094e+14 0 1.48353e+16 1.63974e+16 0 
2243 1 21.3243 1.50439e+17 23805.1 854.189 383.253 3975.29 124.556 4.8416 1.09198e+17 9.07047e+13 0 2.03783e+16 2.07714e+16 0 
267 1 38.4414 1.35598e+17 21321.1 817.157 333.746 4820.18 211.628 0.345411 1.05212e+17 9.07047e+13 0 1.55004e+16 1.47949e+16 0 
147 1 31.0786 1.09627e+17 16649.2 592.924 271.839 5780.42 173.783 0.238539 9.22668e+16 1.51174e+13 0 8.64214e+15 8.70261e+15 0 
275 1 27.3729 9.65551e+16 11457.4 507.952 231.459 6435.84 126.6 -3.09927 8.59175e+16 2.51957e+13 0 5.37677e+15 5.23567e+15 0 
155 1 25.6057 9.03217e+16 7745 400.237 188.356 6823.89 91.565 -0.461155 8.35592e+16 2.01566e+13 0 3.28049e+15 3.46189e+15 0 
283 1 24.4443 8.62249e+16 5121.28 283.171 169.014 7068.82 67.079 -0.833536 8.21028e+16 1.00783e+13 0 1.9048e+15 2.20715e+15 0 
651 1 25.0657 1.76834e+17 23288.4 898.18 411.976 3998.99 164.496 -0.596414 1.28277e+17 5.03915e+13 0 2.43895e+16 2.41174e+16 0 
1163 1 30.1257 2.12531e+17 22913.8 1078.97 433.569 3366.69 220.02 -1.4301 1.46831e+17 1.81409e+14 0 3.3853e+16 3.1666e+16 0 
1675 1 20.91 1.47516e+17 22828.8 869.752 377.909 4221.11 195.699 11.8745 1.08382e+17 9.07047e+13 0 1.95217e+16 1.95217e+16 0 
2187 1 24.5143 1.72944e+17 23163.4 966 422.247 3691.47 244.344 2.64217 1.22975e+17 1.81409e+14 0 2.5357e+16 2.44298e+16 0 
1795 1 25.3043 1.78517e+17 23422.7 974.554 433.302 3278.41 160.436 -1.67652 1.2233e+17 1.51174e+14 0 2.81487e+16 2.78866e+16 0 
2307 1 32.35 2.28223e+17 21555.4 1058.18 488.341 2560.7 202.383 1.75938 1.49199e+17 1.61253e+14 0 3.99302e+16 3.89325e+16 0 
257 1 26.09 9.203e+16 10028.5 289.217 177.843 6666.78 15.5324 -0.576317 8.38565e+16 0 0 3.54252e+15 4.63098e+15 0 
194 1 28.3771 1.00098e+17 14697.2 400.158 215.123 6156.87 29.1936 0.850299 8.67741e+16 2.51957e+13 0 6.27374e+15 7.02457e+15 0 
258 1 33.1686 1.16999e+17 19331.3 576.053 261.728 5470.69 52.4993 -0.774214 9.55473e+16 1.51174e+13 0 1.02698e+16 1.11668e+16 0 
1292 2 30.7814 2.17157e+17 19866.1 1364.49 522.01 3385.74 487.499 -8.08861 1.50902e+17 9.07047e+13 0 3.54554e+16 3.07086e+16 0 
2316 2 22.4129 1.58118e+17 20016.6 1251.14 468.28 4294.71 434.922 6.35597 1.16687e+17 9.07047e+13 0 2.18296e+16 1.95116e+16 0 
13444 2 164.796 2.3252e+18 5216.89 1394.27 656.106 210.632 119.547 -3.11094 1.41058e+18 1.35049e+15 0 5.14557e+17 3.98718e+17 0 
6276 2 142.25 2.00709e+18 3910.28 1225.27 618.447 46.0342 152.801 -0.851829 1.23229e+18 1.73347e+15 0 4.35806e+17 3.3726e+17 0 
14468 2 126.17 1.78021e+18 4231.41 1201 602.526 82.0784 155.694 2.61602 1.09739e+18 9.67516e+14 0 3.80798e+17 3.01059e+17 0 
5380 2 113.831 1.60612e+18 5437.93 1267.54 618.941 242.638 182.498 -0.503709 9.82069e+17 9.67516e+14 0 3.45645e+17 2.77435e+17 0 
9476 2 186.277 2.6283e+18 3580.48 1121.92 593.495 105.477 148.32 -0.761034 1.65459e+18 1.71331e+15 0 5.5866e+17 4.13331e+17 0 
13572 2 99.8486 1.40882e+18 6062.59 1288.84 617.64 304.569 234.492 -0.847861 8.62279e+17 1.02799e+15 0 3.02893e+17 2.42625e+17 0 
17668 2 157.119 2.21688e+18 4035.04 1156.33 602.292 144.245 200.484 1.44637 1.39748e+18 1.87456e+15 0 4.68197e+17 3.49334e+17 0 
6404 2 82.2357 1.16031e+18 6761.85 1272.51 617.661 383.72 292.796 0.480008 7.16627e+17 1.10861e+15 0 2.45648e+17 1.9693e+17 0 
10500 2 121.683 1.7169e+18 4639.93 1163.27 609.692 201.913 268.432 5.63441 1.08463e+18 1.43112e+15 0 3.5919e+17 2.7165e+17 0 
14596 2 64.4886 9.09909e+17 8046.45 1275.32 613.344 546.402 364.917 1.38666 5.71359e+17 6.24854e+14 0 1.88041e+17 1.49884e+17 0 
18692 2 86.41 1.21921e+18 6194.47 1256.58 627.074 403.528 351.461 -1.41157 7.64096e+17 1.51174e+15 0 2.59375e+17 1.94229e+17 0 
5260 2 48.4914 6.84195e+17 10956.7 1384.18 619.175 982.395 426.772 5.37754 4.30686e+17 6.85324e+14 0 1.4289e+17 1.09934e+17 0 
9356 2 57.2857 8.08279e+17 9333.35 1463.81 640.173 862.305 458.372 0.711882 5.11413e+17 5.24071e+14 0 1.66292e+17 1.3005e+17 0 
13452 2 35.8171 5.05366e+17 14021.1 1482.88 620.266 1504.74 479.147 -0.742411 3.24803e+17 3.82975e+14 0 9.98759e+16 8.03039e+16 0 
17548 2 39.3986 5.55899e+17 12267.1 1456.08 611.853 1357.33 518.742 4.41697 3.52922e+17 4.43445e+14 0 1.10962e+17 9.15714e+16 0 
6284 2 26.0186 3.67112e+17 15631.6 1459.51 593.445 1880.36 511.529 7.04827 2.34018e+17 1.81409e+14 0 7.11729e+16 6.17396e+16 0 
10380 2 27.8071 3.92348e+17 15164.6 1585.34 607.956 1921.19 544.398 6.41244 2.53731e+17 1.81409e+14 0 7.50228e+16 6.34126e+16 0 
14476 2 19.9571 2.81588e+17 17781.1 1343.19 593.59 2377.4 521.774 1.01007 1.86408e+17 2.21723e+14 0 5.12985e+16 4.36592e+16 0 
18572 2 20.5214 2.89549e+17 17184.6 1570.48 581.646 2456.84 546.176 -10.4915 1.9054e+17 1.41096e+14 0 5.4322e+16 4.45461e+16 0 
9348 2 484.789 6.84018e+18 2823.49 1231.43 618.865 75.3069 54.3529 -1.28177 4.48774e+18 5.70432e+15 0 1.36511e+18 9.81626e+17 0 
17540 2 350.15 4.94048e+18 2548.81 1119.64 595.986 25.7712 107.052 -1.16777 3.18754e+18 3.95069e+15 0 1.02555e+18 7.2344e+17 0 
8 3 8.83714 1.55861e+16 8082.08 3495.03 1035.77 4799.43 -176.293 0.226018 9.45092e+15 7.55872e+12 0 3.26789e+15 2.85972e+15 0 
7 3 8.16429 1.43994e+16 8974.06 3698 1096.04 4423.72 -331.01 -2.08144 8.75048e+15 1.00783e+13 0 3.04617e+15 2.59264e+15 0 
80 3 25.2714 8.91425e+16 5097.32 1485.87 467.86 6459.58 22.9658 -5.30373 7.01802e+16 3.02349e+13 0 9.86161e+15 9.07047e+15 0 
144 3 23.6929 8.35743e+16 4862.78 1440.32 454.551 6509.9 15.2517 -1.41885 6.60632e+16 4.03132e+13 0 9.27203e+15 8.19869e+15 0 
208 3 28.6186 1.00949e+17 4644.93 1320.9 428.855 6607.33 114.196 -1.67045 8.17652e+16 2.01566e+13 0 1.00934e+16 9.07047e+15 0 
272 3 28.27 9.97197e+16 4367.94 1281.93 398.271 6666.37 101.451 -5.48322 8.20424e+16 5.54306e+13 0 9.14605e+15 8.47585e+15 0 
88 3 27.5814 9.72908e+16 4059.6 1103.39 342.963 6827.7 139.867 2.21242 8.44057e+16 2.51957e+13 0 7.00442e+15 5.85549e+15 0 
152 3 27.0514 9.54213e+16 3907.96 1072.38 335.052 6844.72 131.968 -5.90877 8.31913e+16 2.51957e+13 0 6.75246e+15 5.45236e+15 0 
216 3 26.1157 9.21207e+16 3515.12 802.593 281.032 6979.59 137.6 4.28492 8.33929e+16 2.51957e+13 0 4.52515e+15 4.17745e+15 0 
280 3 26.1843 9.23625e+16 3206.12 783.929 285.822 7014.65 129.927 0.586848 8.36448e+16 1.00783e+13 0 4.72168e+15 3.98597e+15 0 
96 3 24.8714 8.77316e+16 2883.48 634.466 247.456 7116.42 123.711 1.29146 8.18358e+16 1.00783e+13 0 3.23513e+15 2.65059e+15 0 
160 3 25.3743 8.95053e+16 2734.13 641.113 238.24 7124.06 121.757 -2.17387 8.37557e+16 1.00783e+13 0 3.089e+15 2.65059e+15 0 
224 3 24.22 8.54337e+16 2447.55 549.491 213.314 7197.34 106.216 0.588506 8.14024e+16 1.51174e+13 0 2.28273e+15 1.73347e+15 0 
288 3 24.0543 8.48492e+16 2170.64 496.929 208.112 7221.86 102.761 1.68021 8.07977e+16 1.00783e+13 0 2.2273e+15 1.81409e+15 0 
79 3 28.0757 9.90344e+16 5897.78 1895.31 537.423 6216.22 41.2901 4.0911 7.32289e+16 4.03132e+13 0 1.35654e+16 1.21998e+16 0 
143 3 26.3071 9.27959e+16 5462.52 1632.33 484.739 6341.37 32.0092 5.73623 7.06841e+16 3.02349e+13 0 1.17463e+16 1.03353e+16 0 
207 3 30.8243 1.0873e+17 5506.17 1526.64 450.101 6467.67 160.514 2.08535 8.7016e+16 3.5274e+13 0 1.1459e+16 1.02194e+16 0 
271 3 29.7457 1.04925e+17 5007.72 1410.03 438.221 6552.75 131.764 7.30052 8.46627e+16 5.54306e+13 0 1.07737e+16 9.43329e+15 0 
87 3 28.3514 1.00007e+17 5134.43 1127.14 337.23 6705.74 178.82 0.724064 8.56907e+16 3.02349e+13 0 7.69982e+15 6.58617e+15 0 
151 3 27.83 9.81676e+16 4493.79 1106.4 346.592 6780.14 157.934 -3.40466 8.47585e+16 4.03132e+13 0 7.09512e+15 6.27374e+15 0 
215 3 26.4657 9.33553e+16 4402.58 854.785 282.393 6908.09 164.903 1.59451 8.43503e+16 3.5274e+13 0 4.83758e+15 4.12706e+15 5.03915e+12 
279 3 26.25 9.25943e+16 3758.36 870.314 278.841 6964.48 149.58 -1.48963 8.35541e+16 1.51174e+13 0 4.77711e+15 4.248e+15 0 
95 3 25.4086 8.96263e+16 3636.7 622.127 231.933 7055.28 135.167 6.27862 8.35088e+16 0 0 3.46189e+15 2.65563e+15 0 
159 3 25.36 8.9455e+16 3374.36 628.81 251.116 7069.68 145.334 3.87779 8.30552e+16 2.51957e+13 0 3.55764e+15 2.81688e+15 0 
223 3 24.4914 8.63912e+16 3079.95 510.913 209.35 7156.54 119.64 -4.16444 8.20978e+16 2.01566e+13 0 2.31297e+15 1.96023e+15 0 
287 3 24.1271 8.51062e+16 2621.77 483.376 196.344 7192.92 117.154 -1.54697 8.08834e+16 0 0 2.17187e+15 2.05093e+15 0 
142 3 30.45 1.07409e+17 6394.79 1896.84 567.819 6092.69 69.4679 -6.17561 7.75928e+16 4.03132e+13 0 1.54853e+16 1.4291e+16 0 
270 3 31.48 1.11043e+17 6321.68 1505.81 464.474 6353.5 191.814 3.11764 8.81297e+16 2.51957e+13 0 1.20184e+16 1.08694e+16 0 
150 3 28.86 1.01801e+17 5868.8 1121.82 368.524 6642.76 208.186 -2.15201 8.71924e+16 3.5274e+13 0 7.89131e+15 6.68191e+15 0 
278 3 27.0257 9.53306e+16 5309.24 866.729 297.155 6833.03 188.555 1.52786 8.53632e+16 1.00783e+13 0 5.35661e+15 4.60074e+15 0 
158 3 25.4671 8.98329e+16 4512 647.838 237.719 6989.89 155.104 4.67749 8.30905e+16 1.51174e+13 0 3.69873e+15 3.02853e+15 0 
286 3 24.2043 8.53783e+16 3370.01 475.86 202.798 7139.39 120.406 0.108779 8.07523e+16 2.51957e+13 0 2.51453e+15 2.08621e+15 0 
94 3 25.6257 9.03922e+16 5262.22 604.961 232.772 6935.86 165.965 -1.62409 8.34181e+16 5.03915e+12 0 3.62315e+15 3.34599e+15 0 
222 3 24.4057 8.60888e+16 3991.26 457.086 205.16 7093.61 123.724 1.28074 8.11807e+16 1.00783e+13 0 2.4843e+15 2.41375e+15 0 
6 3 6.26714 1.19061e+16 9524.92 3594.19 1045.16 3764.26 -593.368 -14.5827 6.82285e+15 0 0 2.7058e+15 2.37741e+15 0 
206 3 33.7086 1.18904e+17 8137.75 1757.16 505.685 6112.5 252.814 2.02288 9.36475e+16 3.5274e+13 0 1.39282e+16 1.12927e+16 0 
86 3 29.9871 1.05777e+17 7801.61 1276.82 384.312 6419.02 256.542 1.28209 8.90871e+16 1.51174e+13 0 9.17125e+15 7.50329e+15 0 
214 3 27.95 9.85909e+16 6623.8 876.672 289.441 6711.26 209.205 -3.07652 8.75401e+16 4.53523e+13 0 6.09737e+15 4.90813e+15 0 
1165 3 18.0957 1.27662e+17 8028.29 2359.79 691.679 5517.64 60.2783 -7.3043 8.43553e+16 3.02349e+13 0 2.30793e+16 2.01969e+16 0 
2189 3 19.7957 1.39655e+17 9126.14 2366.16 626.735 5523.05 235.637 3.23598 9.65198e+16 8.06264e+13 0 2.31196e+16 1.99349e+16 0 
1293 3 18.89 1.33265e+17 10236.3 1916.77 530.629 5697.7 314.81 2.93498 1.00743e+17 6.04698e+13 0 1.7889e+16 1.45732e+16 0 
2317 3 16.9743 1.1975e+17 10518 1549.6 486.858 5894.56 337.742 0.472163 9.41011e+16 8.06264e+13 0 1.42507e+16 1.13179e+16 0 
590 3 17.0043 1.19962e+17 7418.34 2144.06 642.323 5807.27 21.0669 -4.78926 8.37002e+16 1.00783e+14 0 1.91588e+16 1.70021e+16 0 
1102 3 15.1286 1.06729e+17 6976.66 2106.03 617.905 5894.76 10.8523 9.36134 7.42871e+16 3.02349e+13 0 1.73347e+16 1.50771e+16 0 
1614 3 17.8943 1.26241e+17 7960 2146.77 678.508 5726.06 196.032 2.30676 8.83867e+16 8.06264e+13 0 2.04388e+16 1.73347e+16 0 
2126 3 17.1443 1.2095e+17 7153.72 2076.15 619.507 5893.83 155.931 -0.437381 8.56454e+16 4.03132e+13 0 1.85038e+16 1.67602e+16 0 
5 3 166.454 2.8467e+18 2899.25 1013.13 575.898 106.876 187.863 -0.188211 1.88713e+18 2.66303e+15 0 5.61557e+17 3.95349e+17 0 
5 3 2.20286 1.56336e+16 8716.9 3158.46 950.3 2479.04 -649.003 45.537 8.37441e+15 1.01385e+13 0 4.15679e+15 3.09225e+15 0 
85 3 34.3086 1.2102e+17 14668.3 1195.08 391.083 5630.64 340.226 0.280237 9.76889e+16 5.03915e+13 0 1.25324e+16 1.07485e+16 0 
149 3 31.6557 1.11662e+17 10755.4 1234.96 370.902 6119.72 302.998 0.350535 9.26145e+16 2.51957e+13 0 1.02899e+16 8.73284e+15 0 
213 3 29.0014 1.023e+17 10612.5 788.044 287.846 6368.86 227.699 2.1661 8.94247e+16 3.5274e+13 0 6.76254e+15 6.07721e+15 0 
277 3 27.8743 9.83239e+16 8521.08 851.662 296.669 6541.18 233.208 -3.1425 8.64264e+16 3.5274e+13 0 6.19311e+15 5.66904e+15 0 
93 3 26.0686 9.19544e+16 7114.28 499.98 230.9 6810.39 157.775 0.96434 8.43604e+16 2.01566e+13 0 3.77936e+15 3.79448e+15 0 
157 3 25.9314 9.14706e+16 6476.74 616.308 238.676 6835.13 173.037 0.571043 8.37758e+16 1.00783e+13 0 4.11194e+15 3.57276e+15 0 
221 3 24.8729 8.77366e+16 5354.81 406.921 193.392 7006.66 120.749 4.70866 8.24556e+16 1.51174e+13 0 2.71106e+15 2.55485e+15 0 
285 3 24.5471 8.65877e+16 4490.86 470.892 198.114 7061.87 117.798 -3.61182 8.17148e+16 5.03915e+12 0 2.66571e+15 2.20211e+15 0 
2125 3 30.96 2.18417e+17 15440.4 2105.51 691.012 3740.01 514.276 -8.54159 1.47214e+17 1.31018e+14 0 3.95976e+16 3.14745e+16 0 
653 3 21.39 1.50902e+17 9738.93 2448.68 751.529 5104.52 116.574 5.17989 9.90797e+16 1.10861e+14 0 2.76548e+16 2.40569e+16 0 
1677 3 22.0714 1.5571e+17 12047 2424.18 687.772 4932.46 355.817 -0.0423961 1.07263e+17 6.04698e+13 0 2.67276e+16 2.16583e+16 0 
717 3 28.9343 2.04126e+17 18539.2 1535.56 553.631 3798 511.01 -4.72913 1.43444e+17 9.07047e+13 0 3.2946e+16 2.76448e+16 0 
1229 3 24.7043 1.74284e+17 16363.4 1815.95 555.911 4474.11 494.72 2.70894 1.24941e+17 1.2094e+14 0 2.63951e+16 2.28273e+16 0 
1741 3 22.0086 1.55266e+17 18447 1380.07 461.04 4540.51 451.882 8.41272 1.14711e+17 1.00783e+14 0 2.11846e+16 1.92697e+16 0 
2253 3 19.5057 1.37609e+17 15961 1512.28 514.397 5031.69 429.33 -0.0440867 1.03544e+17 1.00783e+14 0 1.81208e+16 1.58431e+16 0 
781 3 21.5271 1.5187e+17 13141.2 1910.93 553.743 5245.17 401.371 1.09567 1.13351e+17 9.07047e+13 0 2.09125e+16 1.75161e+16 0 
1805 3 18.0914 1.27632e+17 13157.8 1573.28 474.531 5482.52 398.044 4.63583 9.81021e+16 6.04698e+13 0 1.58229e+16 1.3646e+16 0 
4685 3 68.9729 9.7318e+17 7949.75 1344.76 626.974 795.648 456.524 1.7752 6.23766e+17 4.23288e+14 0 1.99893e+17 1.49098e+17 0 
8781 3 66.9543 9.44699e+17 7890.71 1441.5 645.924 1004.58 450.634 3.83418 6.17679e+17 4.83758e+14 0 1.88182e+17 1.38355e+17 0 
12877 3 40.34 5.69182e+17 11567.2 1613.43 641.484 1433.06 548.1 -0.277622 3.63343e+17 3.22505e+14 0 1.15759e+17 8.97573e+16 0 