ITEM: TIMESTEP
15000
ITEM: NUMBER OF CELLS
246
ITEM: BOX BOUNDS oo ao pp
-10 10
0 10
-0.5 0.5
ITEM: CELLS id proc f_avg_n f_avg_nrho f_avg_temp_tra f_avg_temp_rot f_avg_temp_vib f_avg_vel[1] f_avg_vel[2] f_avg_vel[3] f_avg_nrho_CO2 f_avg_nrho_O2 f_avg_nrho_C2 f_avg_nrho_CO f_avg_nrho_O f_avg_nrho_C 
65 0 24.66 8.69858e+16 6111.31 202.174 158.045 7017.22 7.07983 -0.717677 8.24001e+16 1.7637e+13 0 1.99298e+15 2.575e+15 0 
129 0 26.835 9.46579e+16 10188.8 296.317 181.292 6641.12 17.78 2.25975 8.53984e+16 0 0 3.93306e+15 5.32638e+15 0 
66 0 29.355 1.03547e+17 13957.8 387.215 206.681 6238.07 29.366 -11.9766 9.0037e+16 3.5274e+13 0 6.03186e+15 7.44282e+15 0 
130 0 34.915 1.23159e+17 19046.1 541.619 273.988 5500.42 21.8315 -0.00647918 1.00161e+17 3.5274e+13 0 1.09526e+16 1.20108e+16 0 
579 0 29.825 2.1041e+17 16647.2 501.42 246.787 5821.59 43.2763 -17.4309 1.74077e+17 0 0 1.57675e+16 2.05648e+16 0 
1091 0 31.335 2.21062e+17 19690.4 667.213 297.698 5333.76 72.7361 8.69988 1.77746e+17 0 0 2.05648e+16 2.27518e+16 0 
1603 0 17.565 1.23918e+17 23847.6 673.637 383.123 4161.06 43.3673 -5.56476 9.12892e+16 0 0 1.60144e+16 1.66141e+16 0 
2115 0 21.73 1.53301e+17 24084 758.296 424.384 3352.69 58.765 -1.71306 1.05998e+17 3.5274e+13 0 2.36336e+16 2.36336e+16 0 
707 0 21.45 1.51326e+17 21638.9 716.291 288.316 4949.12 65.6693 -0.643009 1.16722e+17 7.05481e+13 0 1.55559e+16 1.89774e+16 0 
1219 0 24.125 1.70197e+17 23580.9 767.561 337.159 4235.01 76.6983 12.0151 1.25188e+17 3.5274e+13 0 2.22932e+16 2.26812e+16 0 
643 0 38.715 2.73127e+17 21527.5 938.644 340.216 4780.17 65.6005 -16.2011 2.06318e+17 7.05481e+13 0 3.35456e+16 3.31929e+16 0 
1667 0 27.965 1.97288e+17 22006.9 1017.53 466.359 2606.05 68.5901 -5.29825 1.26987e+17 1.05822e+14 0 3.36514e+16 3.65439e+16 0 
2179 0 37.255 2.62827e+17 19214.2 1191.04 526.526 1919.19 90.3736 8.42314 1.63672e+17 2.11644e+14 0 5.04066e+16 4.85371e+16 0 
771 0 29.63 2.09034e+17 23510.6 962.403 419.855 3595.16 105.65 -11.2644 1.46881e+17 2.11644e+14 0 2.86072e+16 3.3334e+16 0 
1283 0 38.74 2.73303e+17 21998.1 1143.08 484.644 2819.55 123.338 -11.4969 1.80003e+17 2.82192e+14 0 4.67028e+16 4.63148e+16 0 
5251 0 28.2 3.97891e+17 18650.6 1031.42 363.07 5294.06 47.6803 -4.9585 3.14574e+17 0 0 4.22583e+16 4.1059e+16 0 
9347 0 30.955 4.36763e+17 21121.7 953.3 415.544 4735.61 57.3343 22.5794 3.26214e+17 1.41096e+14 0 5.71439e+16 5.32638e+16 0 
13443 0 20.11 2.83744e+17 22952.7 1016.29 464.328 3504.83 53.5884 -10.5419 1.92385e+17 2.11644e+14 0 4.45158e+16 4.66323e+16 0 
17539 0 22.43 3.16479e+17 22298.4 1141.6 508.216 2923.79 62.5875 1.08602 2.09881e+17 0 0 5.78494e+16 4.87487e+16 0 
4676 0 35.53 5.01315e+17 21722.4 1331.51 476.314 4244.33 45.1716 -11.1665 3.55633e+17 4.93837e+14 0 7.47104e+16 7.04775e+16 0 
8772 0 38.95 5.49569e+17 21810.5 1360.05 473.301 3886 55.1392 25.6546 3.7461e+17 1.41096e+14 0 9.15714e+16 8.32467e+16 0 
12868 0 27.11 3.82512e+17 21566.3 1329.32 532.403 2681.43 68.1152 15.2157 2.4974e+17 1.41096e+14 0 6.83611e+16 6.42693e+16 0 
16964 0 31.355 4.42407e+17 19009.6 1297.17 570.669 1983.19 70.4759 27.2631 2.80287e+17 1.41096e+14 0 8.52221e+16 7.67563e+16 0 
5188 0 45.115 6.36555e+17 21246.9 1595.23 560.171 3065.61 38.711 23.9184 4.11013e+17 7.05481e+14 0 1.1965e+17 1.05187e+17 0 
9284 0 57.76 8.14971e+17 20194.3 1530.22 634.867 2736.96 40.0276 -22.0284 5.08299e+17 3.5274e+14 0 1.52454e+17 1.53865e+17 0 
13380 0 39.9 5.62974e+17 17482.3 1447.68 604.932 1805.05 94.9712 -8.74857 3.46038e+17 8.46577e+14 0 1.12524e+17 1.03565e+17 0 
17476 0 49.34 6.96168e+17 14898.1 1415.06 638.754 1343.28 84.7285 8.48043 4.16445e+17 7.76029e+14 0 1.45752e+17 1.33195e+17 0 
5700 0 24.265 3.4237e+17 17087.4 1179.81 531.423 1521.2 68.4337 -39.0381 2.16371e+17 1.41096e+14 0 6.71618e+16 5.8696e+16 0 
9796 0 29.3 4.13412e+17 14215.5 1394.95 587.989 1122.43 97.5193 7.83763 2.44872e+17 3.5274e+14 0 9.13598e+16 7.68269e+16 0 
13892 0 23.61 3.33128e+17 16890.6 1152.8 533.02 1495.35 106.817 26.0409 2.01344e+17 4.93837e+14 0 6.82905e+16 6.29994e+16 0 
17988 0 28.39 4.00572e+17 14375.3 1303.43 561.082 1122.52 143.692 0.49374 2.45931e+17 2.11644e+14 0 8.16947e+16 7.27351e+16 0 
6212 0 36.475 5.14648e+17 12218.3 1343.15 608.802 844.729 103.544 -2.73034 3.07378e+17 3.5274e+14 0 1.07021e+17 9.98961e+16 0 
10308 0 48.47 6.83893e+17 9775.63 1378.73 609.916 536.932 110.728 -4.55641 4.0932e+17 3.5274e+14 0 1.47798e+17 1.26422e+17 0 
14404 0 36.55 5.15706e+17 11656.3 1356.05 587.479 790.237 140.904 -9.26824 3.08859e+17 2.11644e+14 0 1.09843e+17 9.6792e+16 0 
18500 0 46.335 6.53769e+17 8705.47 1264.42 584.92 412.226 155.569 8.13266 3.8364e+17 5.64385e+14 0 1.4159e+17 1.27974e+17 0 
4804 0 25.02 3.53023e+17 19744.9 1285.84 569.432 2134.86 107.681 3.76183 2.28082e+17 4.23288e+14 0 6.25056e+16 6.20118e+16 0 
8900 0 29.79 4.20325e+17 18200.6 1289.31 515.418 1821.33 149.873 -4.29801 2.6385e+17 3.5274e+14 0 7.98604e+16 7.62625e+16 0 
12996 0 23.49 3.31435e+17 19234.6 1377.23 536.243 2010.41 209.292 25.4162 2.11785e+17 3.5274e+14 0 6.17296e+16 5.75672e+16 0 
17092 0 27.47 3.87591e+17 17986.9 1141.52 554.802 1755.13 200.043 6.01853 2.41274e+17 7.05481e+13 0 8.09186e+16 6.53275e+16 0 
5316 0 35.79 5.04983e+17 14818.6 1352.97 594.117 1280.92 178.567 2.48597 3.04415e+17 3.5274e+14 0 1.05399e+17 9.48166e+16 0 
9412 0 45.82 6.46503e+17 12869 1283.86 604.997 1024.84 198.437 -9.85298 3.88014e+17 5.64385e+14 0 1.37075e+17 1.20849e+17 0 
13508 0 32.735 4.61878e+17 16200.9 1350.77 562.566 1483.72 239.357 3.81104 2.83462e+17 2.11644e+14 0 9.43933e+16 8.38111e+16 0 
17604 0 40.635 5.73344e+17 13366.5 1269.95 580.902 1085.84 238.93 2.20888 3.47308e+17 4.23288e+14 0 1.16122e+17 1.09491e+17 0 
4740 0 74.82 1.05568e+18 16533.3 1683.01 656.088 1942.03 56.7921 8.09138 6.28231e+17 4.23288e+14 0 2.08117e+17 2.18911e+17 0 
8836 0 102.505 1.44631e+18 11912.4 1652.68 677.991 1087.56 51.1936 4.60923 8.34231e+17 1.55206e+15 0 3.24874e+17 2.85649e+17 0 
12932 0 67.51 9.5254e+17 10916.2 1491.63 635.113 792.551 86.3157 -15.519 5.54931e+17 8.46577e+14 0 2.09951e+17 1.86811e+17 0 
17028 0 100.58 1.41915e+18 8295.05 1448.91 678.095 504.506 92.0389 -5.4393 8.28234e+17 1.19932e+15 0 3.23886e+17 2.65825e+17 0 
5764 0 66.035 9.31728e+17 7966.86 1383.43 664.706 388.268 124.227 6.24789 5.45266e+17 1.05822e+15 0 2.08258e+17 1.77146e+17 0 
9860 0 90.56 1.27777e+18 6090.13 1316.18 616.042 213.785 139.883 -4.49464 7.68903e+17 1.12877e+15 0 2.7415e+17 2.33585e+17 0 
13956 0 62.185 8.77406e+17 7336.6 1271.3 604.523 299.714 148.935 -2.29228 5.25583e+17 4.93837e+14 0 1.92737e+17 1.58592e+17 0 
18052 0 86.23 1.21667e+18 6243.82 1370.21 621.546 253.626 172.057 -1.46464 7.23682e+17 1.05822e+15 0 2.66883e+17 2.25048e+17 0 
4868 0 59.395 8.38041e+17 11681.2 1431 605.246 902.269 182.175 -4.68317 5.14507e+17 5.64385e+14 0 1.7637e+17 1.46599e+17 0 
8964 0 77.9 1.09914e+18 7557.22 1367.76 619.687 428.634 194.262 2.66963 6.70066e+17 9.17125e+14 0 2.37394e+17 1.90762e+17 0 
13060 0 52.54 7.41319e+17 10367.7 1290.72 606.273 729.052 251.63 -1.66508 4.50661e+17 2.82192e+14 0 1.53513e+17 1.36863e+17 0 
17156 0 70.355 9.92682e+17 7892.82 1260.04 646.234 473.468 242.305 -8.36331 6.00011e+17 1.19932e+15 0 2.11009e+17 1.80462e+17 0 
193 0 24.47 8.63156e+16 6526.37 228.226 157.637 6985.72 7.74206 2.83199 8.15712e+16 1.7637e+13 0 1.62261e+15 3.10412e+15 0 
5252 0 186.415 2.63024e+18 7386.8 1596.61 711.633 510.538 51.7751 10.1337 1.58853e+18 3.31576e+15 0 5.74473e+17 4.63924e+17 0 
84 1 34.695 1.22383e+17 17742.4 770.167 316.622 5481.39 240.708 -1.04829 9.9561e+16 5.29111e+13 0 1.14288e+16 1.13406e+16 0 
148 1 35.4 1.2487e+17 17350.1 942.408 354.947 5381.01 305.03 -2.56454 1.00196e+17 1.23459e+14 0 1.2875e+16 1.16757e+16 0 
212 1 28.185 9.94199e+16 12304.3 551.927 234.055 6304.98 175.051 -7.905 8.71974e+16 1.7637e+13 0 6.06713e+15 6.13768e+15 0 
276 1 28.7 1.01236e+17 11995.1 642.29 257.037 6288.7 205.048 -1.76594 8.93491e+16 1.7637e+13 0 6.03186e+15 5.83785e+15 0 
92 1 26.285 9.27178e+16 8659.37 427.529 220.802 6698.73 126.847 -1.31698 8.44813e+16 0 0 4.30343e+15 3.93306e+15 0 
156 1 25.435 8.97195e+16 7515.83 479.803 224.569 6803.98 134.673 -7.18107 8.28234e+16 1.7637e+13 0 3.20994e+15 3.6685e+15 0 
220 1 24.025 8.47459e+16 5634.86 370.349 181.668 7004.92 90.8247 -0.177211 7.9737e+16 0 0 2.45155e+15 2.55737e+15 0 
284 1 24.465 8.62979e+16 5171.77 299.15 179.049 7041.36 93.8217 -1.18519 8.19239e+16 1.7637e+13 0 1.95771e+15 2.39863e+15 0 
588 1 37.235 2.62686e+17 21259.2 1359.68 491.434 2771.15 259.877 8.7949 1.75065e+17 2.82192e+14 0 4.52566e+16 4.20819e+16 0 
1612 1 28.84 2.03461e+17 22075.6 1134.12 499.683 3097 308.295 6.51243 1.40073e+17 1.41096e+14 0 3.26285e+16 3.06179e+16 0 
2124 1 34.99 2.46848e+17 20513.9 1192.45 507.555 2662.72 372.621 -5.38964 1.65259e+17 2.11644e+14 0 4.2223e+16 3.91542e+16 0 
716 1 25.11 1.77146e+17 22234.3 879.334 387.59 4140.37 270.026 10.1998 1.30091e+17 2.82192e+14 0 2.48682e+16 2.19052e+16 0 
1228 1 27.41 1.93372e+17 22153.8 1106.11 418.707 3808.35 357.842 0.557438 1.39227e+17 7.05481e+13 0 2.79723e+16 2.61028e+16 0 
1740 1 19.055 1.34429e+17 21414 859.676 352.906 4575.84 303.987 7.59241 1.01166e+17 3.5274e+13 0 1.72137e+16 1.60144e+16 0 
2252 1 20.885 1.4734e+17 21438 1016.87 403.627 4374.48 333.959 -9.53979 1.11642e+17 3.5274e+13 0 1.80603e+16 1.76017e+16 0 
780 1 30.4 2.14466e+17 21000.3 1074.27 468.699 3483.59 406.777 -8.66276 1.50056e+17 3.5274e+13 0 3.34751e+16 3.09001e+16 0 
1804 1 22.305 1.57357e+17 20914.6 1252.61 410.263 4132.43 417.516 -6.33818 1.14147e+17 1.05822e+14 0 2.24696e+16 2.06353e+16 0 
5828 1 20.99 2.96161e+17 19650.7 993.683 570.658 2080 201.097 -17.1579 1.8921e+17 0 0 5.29111e+16 5.40398e+16 0 
9924 1 24.81 3.5006e+17 16656 1389.49 553.069 1589.99 254.719 8.70683 2.16371e+17 2.11644e+14 0 7.16768e+16 6.18001e+16 0 
14020 1 19.285 2.72104e+17 20533.4 1055.46 519.884 2224.62 236.209 6.7076 1.81167e+17 7.05481e+13 0 4.70556e+16 4.38104e+16 0 
18116 1 22.005 3.10482e+17 18224 1154.91 517.473 1868.71 270.495 12.3711 1.93584e+17 3.5274e+14 0 6.29994e+16 5.3546e+16 0 
6340 1 29.82 4.20749e+17 15521.8 1270.15 555.083 1368.72 250.917 -1.33122 2.58347e+17 3.5274e+14 0 8.63508e+16 7.56981e+16 0 
10436 1 36.59 5.16271e+17 12985.3 1205.32 586.582 1035.29 270.206 7.0898 3.09706e+17 7.05481e+14 0 1.09491e+17 9.63687e+16 0 
14532 1 26.725 3.77079e+17 15522.3 1360.31 596.06 1457.67 288.983 -1.87101 2.29422e+17 7.05481e+14 0 7.7744e+16 6.92077e+16 0 
18628 1 31.185 4.40008e+17 13948.8 1402.35 587.089 1164.27 310.208 -1.01208 2.76407e+17 4.93837e+14 0 8.62097e+16 7.68974e+16 0 
5196 1 24.005 3.38701e+17 18309.3 1264.18 539.918 1959.91 315.406 -4.16261 2.22509e+17 3.5274e+14 0 6.09535e+16 5.48864e+16 0 
9292 1 28.695 4.04875e+17 17475.6 1451.14 543.464 1851.28 330.247 -16.701 2.57218e+17 5.64385e+14 0 7.90138e+16 6.80789e+16 0 
13388 1 20.87 2.94468e+17 19939.5 1185.66 518.111 2375.68 314.275 -5.27598 1.93443e+17 2.11644e+14 0 5.12884e+16 4.95247e+16 0 
17484 1 23.775 3.35456e+17 18118.9 1165.16 560.952 2035.49 369.078 1.92307 2.15948e+17 7.05481e+13 0 6.43398e+16 5.5098e+16 0 
4748 1 33.765 4.76411e+17 14707.7 1275.68 572.736 1423.71 375.023 0.967437 2.98912e+17 4.23288e+14 0 9.5381e+16 8.16947e+16 0 
8844 1 39.805 5.61633e+17 12940.3 1336.45 573.475 1183.57 394.049 13.1163 3.49636e+17 7.05481e+14 0 1.15558e+17 9.57337e+16 0 
12940 1 25.555 3.60571e+17 16416.8 1325.14 607.507 1756.85 402.139 -3.50439 2.31539e+17 7.05481e+13 0 7.67563e+16 5.22056e+16 0 
17036 1 30.605 4.31825e+17 14787.2 1411.27 594.573 1524.79 460.438 -18.0501 2.71187e+17 2.82192e+14 0 8.97371e+16 7.06186e+16 0 
5772 1 20.995 2.96231e+17 17960.2 1328.71 590.812 2127.94 420.872 43.956 1.91044e+17 4.23288e+14 0 5.59446e+16 4.88193e+16 0 
9868 1 23.725 3.34751e+17 16609.9 1394.53 590.219 1893.57 467.235 10.036 2.20604e+17 1.41096e+14 0 6.07419e+16 5.32638e+16 0 
13964 1 18.075 2.55031e+17 19734.2 1458.37 596.953 2670.66 426.427 -10.7818 1.71079e+17 2.11644e+14 0 4.22583e+16 4.14823e+16 0 
18060 1 19.695 2.77889e+17 18468.9 1479.29 561.643 2362.97 490.834 6.80242 1.83919e+17 2.11644e+14 0 5.01597e+16 4.35987e+16 0 
5892 1 45.355 6.39942e+17 10596.7 1269.28 577.502 737.091 298.538 2.52794 3.91542e+17 5.64385e+14 0 1.30655e+17 1.1718e+17 0 
9988 1 59 8.32467e+17 8042.31 1161.5 602.015 472.866 315.598 5.6308 5.09569e+17 7.76029e+14 0 1.73196e+17 1.48927e+17 0 
14084 1 39.455 5.56695e+17 11684.6 1288.01 590.098 894.411 332.81 -1.9458 3.41947e+17 5.64385e+14 0 1.14993e+17 9.91906e+16 0 
18180 1 49.21 6.94334e+17 10449 1329.67 594.626 820.419 348.132 -13.0529 4.23359e+17 5.64385e+14 0 1.43706e+17 1.26704e+17 0 
73 1 24.275 8.56277e+16 6768.87 209.991 153.802 6965.72 13.9518 -1.06233 8.08657e+16 0 0 2.02826e+15 2.73374e+15 0 
137 1 26.255 9.2612e+16 8763.52 292.563 170.704 6789.04 19.5645 5.05518 8.59099e+16 0 0 2.83956e+15 3.86251e+15 0 
201 1 23.94 8.4446e+16 4831.36 186.545 154.991 7123.45 13.4029 -1.07123 8.11126e+16 0 0 1.53442e+15 1.79898e+15 0 
265 1 24.61 8.68094e+16 7052.94 236.605 164.091 6932 22.63 -3.27199 8.18005e+16 0 0 2.43391e+15 2.575e+15 0 
81 1 23.715 8.36524e+16 4460.65 157.139 147.63 7154.92 14.8968 1.52267 8.04954e+16 0 0 1.39332e+15 1.7637e+15 0 
145 1 24.42 8.61392e+16 5965.41 236.554 162.533 7026.48 29.3349 2.61019 8.16947e+16 0 0 1.65788e+15 2.78665e+15 0 
209 1 23.27 8.20827e+16 3285.13 175.413 148.513 7239.79 20.058 -0.645324 7.95077e+16 0 0 1.02295e+15 1.55206e+15 0 
273 1 24.105 8.50281e+16 4341 204.918 154.843 7155.06 26.015 4.503 8.22061e+16 1.7637e+13 0 1.16404e+15 1.64024e+15 0 
89 1 23.295 8.21709e+16 2548.46 149.354 147.981 7295.29 13.1684 2.74209 8.06894e+16 0 0 7.23118e+14 7.58392e+14 0 
153 1 23.25 8.20121e+16 3314.52 183.98 146.736 7237.46 16.2557 1.07167 7.97546e+16 0 0 9.34762e+14 1.32278e+15 0 
217 1 22.76 8.02837e+16 2176.98 147.975 143.549 7325.31 8.58318 0.690498 7.88375e+16 0 0 6.34933e+14 8.11303e+14 0 
281 1 23.195 8.18181e+16 2461.17 186.009 145.109 7301.52 15.7755 -0.36796 8.01955e+16 0 0 6.87844e+14 9.34762e+14 0 
74 1 26.505 9.34938e+16 12739.1 391.418 208.067 6382.99 44.7428 -1.72789 8.27176e+16 3.5274e+13 0 4.86782e+15 5.87313e+15 0 
138 1 31.19 1.1002e+17 17253.2 484.531 239.709 5781.17 72.6807 7.19988 9.22592e+16 1.7637e+13 0 8.71269e+15 9.03015e+15 0 
202 1 26.48 9.34056e+16 10815.6 356.971 193.257 6568.83 51.886 -1.00499 8.4693e+16 0 0 3.93306e+15 4.77963e+15 0 
266 1 28.695 1.01219e+17 14307.9 378.486 211.872 6198.01 77.347 0.206023 8.92433e+16 1.7637e+13 0 5.60857e+15 6.34933e+15 0 
82 1 24.97 8.80793e+16 7980.83 259.928 170.384 6833.55 46.0871 6.66143 8.15536e+16 0 0 2.92775e+15 3.59795e+15 0 
146 1 26.725 9.42699e+16 11167.5 348.987 198.969 6516.79 68.9364 0.0824427 8.49222e+16 3.5274e+13 0 4.33871e+15 4.97364e+15 0 
210 1 24.015 8.47106e+16 6444.93 245.5 169.346 6977.13 36.7981 0.464689 8.04601e+16 1.7637e+13 0 2.02826e+15 2.20463e+15 0 
274 1 25.41 8.96313e+16 8066.11 291.499 176.956 6842.37 70.2582 -6.61771 8.39698e+16 1.7637e+13 0 2.39863e+15 3.24521e+15 0 
90 1 23.52 8.29645e+16 4045.79 204.998 156.573 7174.73 29.3448 5.46824 8.01602e+16 1.7637e+13 0 1.0935e+15 1.69315e+15 0 
154 1 24.335 8.58394e+16 5527.32 303.637 172.957 7046.42 52.3144 -0.273439 8.16947e+16 0 0 1.9048e+15 2.2399e+15 0 
218 1 23.245 8.19945e+16 2640.18 194.058 146.771 7278.34 20.79 5.95978 7.9931e+16 0 0 7.23118e+14 1.34041e+15 0 
282 1 23.225 8.19239e+16 3925.94 227.438 155.268 7182.36 45.3413 1.44438 7.87669e+16 0 0 1.35805e+15 1.79898e+15 0 
83 1 28.48 1.0046e+17 13801.5 424.745 234.973 6212.89 110.671 -1.10521 8.80793e+16 5.29111e+13 0 5.99659e+15 6.33169e+15 0 
211 1 26.355 9.29647e+16 9279.91 324.035 193.677 6695.51 77.7181 -3.31114 8.48164e+16 1.7637e+13 0 3.86251e+15 4.26816e+15 0 
91 1 25.005 8.82027e+16 6955.41 269.892 182.16 6911.93 71.0902 -2.93603 8.23825e+16 0 0 2.80429e+15 3.01593e+15 0 
219 1 24.225 8.54514e+16 4078.08 252.386 159.103 7164.39 48.2146 4.14938 8.19239e+16 1.7637e+13 0 1.4286e+15 2.08117e+15 0 
75 1 37.15 1.31043e+17 21767.5 672.176 332.666 4866.25 122.899 -4.49737 1.02277e+17 0 0 1.43565e+16 1.44094e+16 0 
203 1 32.19 1.13547e+17 17948.1 546.944 263.202 5619.32 127.167 1.80216 9.46402e+16 3.5274e+13 0 8.85378e+15 1.00178e+16 0 
1731 1 17.935 1.26528e+17 22631.3 595.834 296.863 4635.93 91.6084 -8.3707 9.48166e+16 2.11644e+14 0 1.4674e+16 1.68257e+16 0 
2243 1 21.35 1.5062e+17 24021.4 766.16 359.802 3990.86 125.573 0.295996 1.10337e+17 7.05481e+13 0 2.00357e+16 2.01767e+16 0 
267 1 38.67 1.36405e+17 21331.8 850.735 344.14 4809.24 213.397 -1.26898 1.05522e+17 1.23459e+14 0 1.53442e+16 1.54148e+16 0 
147 1 30.63 1.08044e+17 16252.2 520.67 273.663 5842.09 172.049 7.55525 9.11128e+16 1.7637e+13 0 8.55395e+15 8.35995e+15 0 
275 1 27.105 9.56103e+16 11095.1 450.144 241.244 6476.43 124.174 -2.65433 8.52573e+16 5.29111e+13 0 5.36165e+15 4.93837e+15 0 
155 1 25.575 9.02133e+16 7305.62 371.023 182.219 6866.66 84.3597 5.03398 8.37758e+16 3.5274e+13 0 2.8572e+15 3.54504e+15 0 
283 1 24.39 8.60334e+16 4903.75 273.801 165.947 7081.16 62.37 2.93379 8.17476e+16 0 0 1.99298e+15 2.29281e+15 0 
651 1 25.325 1.78663e+17 23021.2 890.311 424.301 4041.87 161.175 -3.54392 1.28503e+17 7.05481e+13 0 2.51504e+16 2.49387e+16 0 
1163 1 29.545 2.08434e+17 23016.7 988.999 420.28 3327.85 219.124 1.10859 1.4413e+17 2.46918e+14 0 3.28401e+16 3.12175e+16 0 
1675 1 20.735 1.46281e+17 22733.6 903.52 380.8 4254.35 203.924 13.2744 1.07409e+17 1.41096e+14 0 1.97535e+16 1.89774e+16 0 
2187 1 24.29 1.71361e+17 23195.4 1012.08 418.683 3697.77 249.957 8.46768 1.21343e+17 2.46918e+14 0 2.41274e+16 2.56442e+16 0 
1795 1 25.55 1.8025e+17 23319.4 926.337 430.859 3248.41 167.965 -1.50876 1.23318e+17 1.7637e+14 0 2.76901e+16 2.90658e+16 0 
2307 1 32.215 2.27271e+17 21250.5 1068.72 492.372 2471.73 199.082 1.34919 1.4868e+17 2.11644e+14 0 3.99302e+16 3.84487e+16 0 
257 1 25.93 9.14656e+16 9588.79 242.449 174.305 6709.21 12.2363 -1.94736 8.39522e+16 0 0 3.31576e+15 4.19761e+15 0 
194 1 28.595 1.00866e+17 14698.3 425.802 215.783 6138.71 36.4455 0.975509 8.74091e+16 3.5274e+13 0 6.22587e+15 7.1959e+15 0 
258 1 32.98 1.16334e+17 19479.1 564.729 268.948 5431.89 51.5558 -0.767459 9.46402e+16 5.29111e+13 0 1.05998e+16 1.10408e+16 0 
1292 2 30.59 2.15807e+17 19825.1 1402.42 510.546 3411.03 486.151 -6.92169 1.49244e+17 1.05822e+14 0 3.56973e+16 3.0759e+16 0 
2316 2 22.765 1.60603e+17 19883.9 1222.38 428.225 4346.05 423.119 12.6915 1.20073e+17 7.05481e+13 0 2.07411e+16 1.97182e+16 0 
13444 2 162.405 2.29147e+18 5255.41 1407.81 656.841 211.046 124.165 -2.50491 1.37929e+18 1.26987e+15 0 5.1105e+17 3.99866e+17 0 
6276 2 143.345 2.02254e+18 3781.94 1188.33 613.701 35.1926 152.093 -7.20679 1.22951e+18 1.26987e+15 0 4.47839e+17 3.43922e+17 0 
14468 2 126.29 1.7819e+18 4463.54 1215.41 612.225 107.803 149.046 -0.283474 1.09921e+18 4.23288e+14 0 3.76092e+17 3.06179e+17 0 
5380 2 113.08 1.59552e+18 5076.73 1235.37 633.432 205.396 176.429 7.24271 9.72011e+17 8.46577e+14 0 3.45333e+17 2.77324e+17 0 
9476 2 183.07 2.58305e+18 3593.32 1136.07 587.572 108.097 152.545 -4.58117 1.61188e+18 9.87673e+14 0 5.6643e+17 4.03747e+17 0 
13572 2 98.96 1.39629e+18 6348.52 1302.14 620.142 341.936 231.082 -9.8229 8.58288e+17 9.87673e+14 0 3.03004e+17 2.34008e+17 0 
17668 2 155.045 2.18763e+18 4113.78 1162.92 603.152 152.818 198.423 -6.72139 1.39544e+18 2.75137e+15 0 4.46428e+17 3.43005e+17 0 
6404 2 80.82 1.14034e+18 6150.64 1234.06 617.796 305.105 299.869 1.81258 7.03999e+17 1.69315e+15 0 2.44237e+17 1.90409e+17 0 
10500 2 121.16 1.70952e+18 4492.28 1170.43 609.083 185.172 271.19 -0.706434 1.087e+18 1.05822e+15 0 3.51823e+17 2.69635e+17 0 
14596 2 64.13 9.0485e+17 7966.18 1250.42 589.154 539.07 363.835 -1.22314 5.69464e+17 5.64385e+14 0 1.83566e+17 1.51255e+17 0 
18692 2 86.725 1.22366e+18 6502.24 1273.83 627.258 428.374 355.364 -9.74088 7.69468e+17 2.25754e+15 0 2.62298e+17 1.89633e+17 0 
5260 2 48.495 6.84246e+17 10810.7 1352.26 601.827 953.068 419.54 8.74088 4.33588e+17 5.64385e+14 0 1.43424e+17 1.06669e+17 0 
9356 2 57.965 8.17864e+17 9405.95 1458.63 653.209 886.989 451.525 5.95907 5.1225e+17 7.76029e+14 0 1.72419e+17 1.32419e+17 0 
13452 2 35.365 4.98987e+17 14388 1476.64 628.226 1561.86 478.213 -1.46987 3.21981e+17 4.23288e+14 0 9.92611e+16 7.73207e+16 0 
17548 2 40.935 5.77577e+17 12199.7 1450.96 618.598 1362.95 523.536 10.8659 3.63464e+17 4.23288e+14 0 1.17039e+17 9.66509e+16 0 
6284 2 26.82 3.7842e+17 16249.5 1479.25 558.668 1999.3 497.391 21.0517 2.42474e+17 1.41096e+14 0 7.35111e+16 6.22939e+16 0 
10380 2 27 3.8096e+17 15358.5 1482.06 588.938 1941.2 551.053 19.259 2.49176e+17 3.5274e+14 0 7.0407e+16 6.10241e+16 0 
14476 2 19.845 2.80005e+17 17852.7 1274.04 600.675 2429.94 508.285 10.9624 1.87164e+17 2.11644e+14 0 4.95953e+16 4.30343e+16 0 
18572 2 20.455 2.88612e+17 17558.4 1404.6 544.838 2531.19 533.856 -16.4839 1.87517e+17 2.11644e+14 0 5.44631e+16 4.64206e+16 0 
9348 2 487.135 6.87329e+18 2915.57 1250.2 620.805 89.1727 53.9673 -2.03837 4.49201e+18 6.13768e+15 0 1.37971e+18 9.95433e+17 0 
17540 2 349.03 4.92468e+18 2614.4 1113.53 591.785 33.7184 106.713 -1.78163 3.16747e+18 4.44453e+15 0 1.03141e+18 7.21354e+17 0 
8 3 8.985 1.58469e+16 7998.8 3563.75 1042.38 4832.74 -163.923 -11.2493 9.6739e+15 0 0 3.34221e+15 2.83074e+15 0 
7 3 8.03 1.41625e+16 8883.56 3932.43 1060.59 4469.1 -346.887 -9.06834 8.65978e+15 0 0 2.96302e+15 2.53973e+15 0 
80 3 26.15 9.22416e+16 5019.4 1476.07 476.967 6467.74 19.1425 1.596 7.24352e+16 1.7637e+13 0 1.07586e+16 9.03015e+15 0 
144 3 23.14 8.16241e+16 4853.63 1498.26 476.782 6511.9 12.1123 -9.59508 6.45691e+16 0 0 9.11834e+15 7.93666e+15 0 
208 3 28.84 1.0173e+17 4612.43 1365.85 396.74 6615.1 110.488 1.62302 8.24883e+16 1.7637e+13 0 1.02647e+16 8.95961e+15 0 
272 3 28.04 9.89084e+16 4260.35 1306.98 400.456 6683.12 101.253 -0.336546 8.11479e+16 7.05481e+13 0 9.70036e+15 7.98957e+15 0 
88 3 27.015 9.52928e+16 3936.2 1022.76 342.695 6852.52 130.772 6.68522 8.28587e+16 3.5274e+13 0 6.66679e+15 5.73203e+15 0 
152 3 27.27 9.61923e+16 3983.34 1124.9 341.074 6824.53 126.273 -12.3077 8.35642e+16 3.5274e+13 0 6.94899e+15 5.64385e+15 0 
216 3 25.61 9.03368e+16 3468.91 836.147 277.527 6986.21 131.281 1.32878 8.1871e+16 1.7637e+13 0 4.60326e+15 3.84487e+15 0 
280 3 26.38 9.30529e+16 3141.85 797.49 273.26 7027.83 131.07 -0.386853 8.43755e+16 1.7637e+13 0 4.60326e+15 4.05651e+15 0 
96 3 25.02 8.82556e+16 2820.42 630.088 246.993 7127.4 124.081 2.99855 8.26471e+16 0 0 3.06884e+15 2.53973e+15 0 
160 3 25.64 9.04426e+16 2798.24 606.055 241.894 7115.6 125.441 0.275177 8.39698e+16 1.7637e+13 0 3.1923e+15 3.26285e+15 0 
224 3 24.155 8.52044e+16 2484.88 520.579 203.176 7199.51 104.776 -0.0959367 8.11479e+16 0 0 2.2399e+15 1.81661e+15 0 
288 3 24.25 8.55395e+16 2115.73 512.876 206.045 7224.81 102.546 5.90858 8.15712e+16 0 0 2.32809e+15 1.64024e+15 0 
79 3 27.995 9.87497e+16 5832.17 1858.53 555.201 6217.55 43.7895 9.5752 7.24352e+16 3.5274e+13 0 1.39685e+16 1.23106e+16 0 
143 3 26.48 9.34056e+16 5446.1 1540.18 484.817 6350.28 32.625 10.1514 7.18356e+16 1.7637e+13 0 1.10055e+16 1.05469e+16 0 
207 3 30.78 1.08573e+17 5495.67 1528.9 437.562 6470.12 155.256 2.12034 8.77794e+16 7.05481e+13 0 1.09526e+16 9.77091e+15 0 
271 3 29.155 1.02841e+17 5049.87 1383.5 413.093 6534.62 137.143 -4.67586 8.3088e+16 1.7637e+13 0 1.03706e+16 9.36526e+15 0 
87 3 28.015 9.88202e+16 5144.12 1234.81 357.495 6688.77 181.467 3.36887 8.44637e+16 0 0 7.97193e+15 6.3846e+15 0 
151 3 27.87 9.83087e+16 4335.47 1110.37 343.774 6802.19 157.074 -1.58592 8.4252e+16 3.5274e+13 0 7.30173e+15 6.7197e+15 0 
215 3 26.045 9.18712e+16 4325.73 798.051 267.231 6934.03 164.13 3.06981 8.37758e+16 0 0 4.39162e+15 3.70377e+15 0 
279 3 26.845 9.46932e+16 3745.78 882.444 270.729 6968.78 157.643 -4.35372 8.5663e+16 5.29111e+13 0 4.86782e+15 4.10943e+15 0 
95 3 25.12 8.86084e+16 3528.3 595.769 232.491 7069.83 129.654 5.35859 8.26647e+16 0 0 3.5274e+15 2.41627e+15 0 
159 3 25.41 8.96313e+16 3268.81 617.299 240.913 7092.28 143.944 5.92628 8.36171e+16 3.5274e+13 0 3.38631e+15 2.59264e+15 0 
223 3 24.245 8.55219e+16 2727.96 486.847 210.166 7192.3 111.349 -3.19089 8.17123e+16 1.7637e+13 0 2.11644e+15 1.67552e+15 0 
287 3 23.955 8.4499e+16 2626.97 505.644 200.534 7195.33 117.326 -7.24514 8.0319e+16 0 0 2.01062e+15 2.16935e+15 0 
142 3 31.115 1.09755e+17 6394.66 1891.9 608.096 6055.59 72.4557 -13.6007 7.83613e+16 8.81851e+13 0 1.67023e+16 1.46035e+16 0 
270 3 31.67 1.11713e+17 6204.22 1401.42 455.651 6374.07 183.81 3.27885 8.86437e+16 1.7637e+13 0 1.16581e+16 1.13935e+16 0 
150 3 29.26 1.03212e+17 5872.46 1119.92 357.731 6655.76 211.836 6.46319 8.82909e+16 1.7637e+13 0 7.84847e+15 7.05481e+15 0 
278 3 27.23 9.60512e+16 5212.75 872.459 309.357 6854.1 184.929 5.23551 8.6827e+16 0 0 4.70908e+15 4.51508e+15 0 
158 3 25.32 8.93139e+16 4365.88 574.454 227.704 7008.9 149.674 8.47747 8.27882e+16 0 0 3.58031e+15 2.94538e+15 0 
286 3 24.49 8.63861e+16 3379.76 473.826 193.247 7135.26 115.757 0.0570489 8.15007e+16 3.5274e+13 0 2.8572e+15 1.99298e+15 0 
94 3 25.355 8.94373e+16 5264.92 556.538 228.175 6939.29 171.741 1.22131 8.24354e+16 0 0 3.63323e+15 3.36867e+15 0 
222 3 24.185 8.53103e+16 3876.8 425.683 207.289 7112.76 118.33 -2.2186 8.07952e+16 0 0 2.15172e+15 2.36336e+15 0 
6 3 6.465 1.22819e+16 9600.79 3489.88 1064.37 3834.04 -575.702 -17.6846 7.0766e+15 0 0 2.60267e+15 2.60267e+15 0 
206 3 33.32 1.17533e+17 7999.88 1632.06 495.1 6112.41 253.024 0.833731 9.25943e+16 5.29111e+13 0 1.38274e+16 1.10584e+16 0 
86 3 29.755 1.04958e+17 7739.52 1302.84 378.815 6436.77 268.338 5.91348 8.90317e+16 0 0 8.58923e+15 7.337e+15 0 
214 3 27.585 9.73034e+16 6551.87 910.632 295.866 6710.84 215.139 -5.88658 8.62803e+16 0 0 6.10241e+15 4.92073e+15 0 
1165 3 18.185 1.28292e+17 7838.06 2416.59 702.916 5511.99 64.5777 1.72265 8.3282e+16 0 0 2.40922e+16 2.09175e+16 0 
2189 3 19.525 1.37745e+17 9025.61 2466.55 609.262 5548.92 248.264 -5.27086 9.56632e+16 3.5274e+13 0 2.36336e+16 1.8413e+16 0 
1293 3 19.74 1.39262e+17 9859.17 1894.79 551.074 5768.41 296.063 -1.47616 1.04623e+17 7.05481e+13 0 1.96124e+16 1.49562e+16 0 
2317 3 16.43 1.1591e+17 10566 1487.64 461.211 5892.94 346.979 2.44091 9.22063e+16 1.05822e+14 0 1.25576e+16 1.10408e+16 0 
590 3 16.335 1.1524e+17 7438.38 2239.91 669.186 5737.92 37.4471 -28.9445 7.88022e+16 1.05822e+14 0 2.01767e+16 1.61555e+16 0 
1102 3 14.855 1.04799e+17 6955.57 1986.19 587.346 5911.2 14.7462 3.87142 7.26998e+16 7.05481e+13 0 1.6861e+16 1.51678e+16 0 
1614 3 17.68 1.24729e+17 7882.7 2040.67 694.991 5762.82 193.636 8.32107 8.7656e+16 0 0 2.0212e+16 1.6861e+16 0 
2126 3 16.99 1.19861e+17 6886.62 1914.19 608.518 5951.68 149.888 5.28623 8.51163e+16 3.5274e+13 0 1.79545e+16 1.67552e+16 0 
5 3 166.44 2.84646e+18 2837.74 993.281 576.311 94.2412 186.373 0.281673 1.8937e+18 2.90734e+15 0 5.5838e+17 3.91465e+17 0 
5 3 2.145 1.5223e+16 8492.81 2812.12 1112.24 2555.6 -630.775 56.6516 7.4518e+15 3.54848e+13 0 4.75496e+15 2.98072e+15 0 
85 3 33.795 1.19209e+17 14641.4 1157.3 375.831 5637.99 342.008 0.60788 9.65627e+16 7.05481e+13 0 1.22225e+16 1.03529e+16 0 
149 3 31.15 1.09879e+17 10521 1211.05 355.703 6175.35 302.779 -1.58317 9.22769e+16 0 0 9.32998e+15 8.27176e+15 0 
213 3 28.7 1.01236e+17 10382 754.89 275.542 6400.14 220.794 -0.0580121 8.85378e+16 3.5274e+13 0 6.70207e+15 5.96131e+15 0 
277 3 28.155 9.9314e+16 8520.32 919.492 294.929 6546.54 229.059 1.11983 8.74267e+16 0 0 5.73203e+15 6.15532e+15 0 
93 3 25.915 9.14127e+16 6834.81 488.002 225.01 6845 148.955 4.95051 8.41991e+16 5.29111e+13 0 3.56268e+15 3.59795e+15 0 
157 3 26.375 9.30353e+16 6470.04 622.149 236.179 6831.28 167.347 -4.45327 8.49046e+16 1.7637e+13 0 4.03888e+15 4.07415e+15 0 
221 3 24.84 8.76207e+16 4856.07 344.534 183.215 7056.5 111.864 6.90516 8.2506e+16 1.7637e+13 0 2.82192e+15 2.27518e+15 0 
285 3 24.49 8.63861e+16 4527.48 423.738 201.229 7061.96 122.742 -1.64178 8.16065e+16 1.7637e+13 0 2.55737e+15 2.20463e+15 0 
2125 3 30.52 2.15313e+17 15462.3 2208.11 636.132 3733.05 522.969 -1.61833 1.47375e+17 0 0 3.75316e+16 3.04062e+16 0 
653 3 21.03 1.48363e+17 9548.85 2477.49 780.241 5130.27 127.952 -5.32621 9.77444e+16 1.05822e+14 0 2.59264e+16 2.4586e+16 0 
1677 3 21.29 1.50197e+17 12125.5 2470.58 686.75 4948.22 358.891 18.074 1.04588e+17 0 0 2.58911e+16 1.97182e+16 0 
717 3 29.645 2.0914e+17 18668.7 1522.26 550.01 3885.25 497.509 10.4072 1.49244e+17 1.05822e+14 0 3.20641e+16 2.77254e+16 0 
1229 3 24.305 1.71467e+17 16253.4 1771.94 546.105 4502.64 483.251 18.1964 1.22189e+17 1.7637e+14 0 2.49035e+16 2.4198e+16 0 
1741 3 22.38 1.57887e+17 18078.5 1451.76 482.505 4589.13 439.449 -1.92752 1.15099e+17 1.05822e+14 0 2.29987e+16 1.96829e+16 0 
2253 3 19.945 1.40708e+17 15933.1 1535.32 532.483 5012.42 444.696 0.921683 1.04341e+17 3.5274e+13 0 2.01062e+16 1.62261e+16 0 
781 3 21.045 1.48468e+17 13211 1969.93 588.934 5168.4 418.529 5.44382 1.0935e+17 1.05822e+14 0 2.17641e+16 1.7249e+16 0 
1805 3 18.075 1.27516e+17 13006.7 1594.85 453.199 5487.44 383.14 3.23303 9.62276e+16 1.05822e+14 0 1.62966e+16 1.48856e+16 0 
4685 3 68.03 9.59877e+17 8284.72 1288.14 624.898 827.554 448.504 -3.91395 6.17013e+17 4.23288e+14 0 1.92808e+17 1.49632e+17 0 
8781 3 67.925 9.58396e+17 8142.28 1436.81 641.9 1053.35 459.416 -4.60769 6.20259e+17 5.64385e+14 0 1.91609e+17 1.45964e+17 0 
12877 3 40.715 5.74473e+17 11509.6 1622.73 651.903 1418.92 560.769 1.04024 3.66991e+17 4.93837e+14 0 1.1845e+17 8.85378e+16 0 
16973 3 35.545 5.01526e+17 12314.7 1734.59 648.88 1880.31 556.115 -0.524223 3.20429e+17 1.41096e+14 0 9.54515e+16 8.55043e+16 0 
5197 3 23.275 3.3348e+17 13027.8 2041.32 754.171 2640.18 324.764 -1.2085 2.19144e+17 0 0 6.47618e+16 4.95743e+16 0 
9293 3 12.545 1.77005e+17 10793.9 3151.86 753.992 4606.93 76.7202 -59.0574 1.08997e+17 7.05481e+13 0 3.51329e+16 3.28049e+16 0 
13389 3 23.3 3.28754e+17 14183.5 2211.81 790.925 3011.05 487.803 15.646 2.1757e+17 0 0 6.26467e+16 4.85371e+16 0 
17485 3 15.78 2.2265e+17 12499.3 2434.78 789.035 4123.64 354.171 17.9371 1.43283e+17 7.05481e+13 0 4.51508e+16 3.41453e+16 0 
5709 3 27.41 3.86745e+17 15498.4 1534.22 670.858 2245.71 553.591 -12.3778 2.55596e+17 7.05481e+13 0 7.1183e+16 5.98953e+16 0 