ITEM: TIMESTEP
21000
ITEM: NUMBER OF CELLS
246
ITEM: BOX BOUNDS oo ao pp
-10 10
0 10
-0.5 0.5
ITEM: CELLS id proc f_avg_n f_avg_nrho f_avg_temp_tra f_avg_temp_rot f_avg_temp_vib f_avg_vel[1] f_avg_vel[2] f_avg_vel[3] f_avg_nrho_CO2 f_avg_nrho_O2 f_avg_nrho_C2 f_avg_nrho_CO f_avg_nrho_O f_avg_nrho_C 
65 0 24.4175 8.61304e+16 6499.39 198.605 155.529 6990.36 13.6417 -0.357175 8.14522e+16 2.20463e+13 0 2.06794e+15 2.58823e+15 0 
129 0 26.9312 9.49974e+16 9947.5 306.836 178.084 6673.81 20.2498 -1.24401 8.64743e+16 1.32278e+13 0 3.91542e+15 4.59444e+15 0 
66 0 29.3175 1.03415e+17 13883.3 408.794 211.718 6248.58 29.171 -3.43517 9.02001e+16 2.64555e+13 0 6.0495e+15 7.13858e+15 0 
130 0 34.8362 1.22882e+17 19148.6 553.2 269.92 5492.91 36.9791 3.1891 1.00002e+17 3.96833e+13 0 1.10716e+16 1.17683e+16 0 
579 0 29.895 2.10903e+17 16285.4 613.181 266.214 5856.76 55.5622 -6.16307 1.76e+17 2.20463e+14 0 1.60673e+16 1.86159e+16 0 
1091 0 32.6375 2.30251e+17 19385.4 694.382 289.456 5354.47 67.5515 10.7974 1.83478e+17 2.64555e+13 0 2.18787e+16 2.48682e+16 0 
1603 0 17.75 1.25223e+17 23912.2 757.294 361.267 4009.76 43.3717 -4.56961 9.0134e+16 6.17296e+13 0 1.73636e+16 1.76635e+16 0 
2115 0 21.6913 1.53028e+17 23857.2 860.128 421.741 3311.48 60.4095 -4.7989 1.05293e+17 4.40925e+13 0 2.39687e+16 2.37218e+16 0 
707 0 21.9775 1.55047e+17 21566.4 713.175 309.169 4921.75 65.1358 -7.00259 1.18988e+17 5.29111e+13 0 1.75577e+16 1.84483e+16 0 
1219 0 24.8588 1.75374e+17 23375.2 809.923 353.754 4229.71 86.14 2.19333 1.28159e+17 3.5274e+13 0 2.32191e+16 2.39599e+16 0 
643 0 38.8275 2.73921e+17 21636.3 902.508 358.736 4726.27 62.2728 -6.34809 2.05436e+17 9.70036e+13 0 3.44363e+16 3.39513e+16 0 
1667 0 27.775 1.95947e+17 22006.8 1017.69 462.272 2566.85 61.4286 0.60439 1.26166e+17 6.17296e+13 0 3.53622e+16 3.43569e+16 0 
2179 0 37.4375 2.64114e+17 19053.2 1139.63 517.919 1877.53 87.8599 1.47145 1.63019e+17 1.58733e+14 0 5.18793e+16 4.90574e+16 0 
771 0 29.7275 2.09722e+17 23629.4 948.064 406.255 3533.91 106.72 -0.450926 1.46423e+17 1.14641e+14 0 3.10764e+16 3.21082e+16 0 
1283 0 38.4775 2.71451e+17 21870.8 1164.85 486.049 2733.43 132.603 -1.20344 1.77525e+17 1.58733e+14 0 4.79903e+16 4.57769e+16 0 
5251 0 28.945 4.08403e+17 18482.8 910.949 369.96 5304.66 61.9489 7.89219 3.15244e+17 1.41096e+14 0 4.62972e+16 4.67205e+16 0 
9347 0 31.6325 4.46322e+17 20926.9 985.358 394.817 4769.16 54.0144 23.1326 3.32546e+17 2.11644e+14 0 5.79905e+16 5.55742e+16 0 
13443 0 19.515 2.75349e+17 22927.7 1080.8 476.353 3302.23 46.6799 -11.2406 1.85189e+17 1.05822e+14 0 4.538e+16 4.46746e+16 0 
17539 0 22.765 3.21205e+17 22258.3 1181.42 503.124 2964.79 70.6005 16.0879 2.12226e+17 1.94007e+14 0 5.61915e+16 5.25936e+16 0 
4676 0 34.6025 4.88228e+17 21726.2 1210.17 452.675 4249.43 44.3062 10.8125 3.48437e+17 2.99829e+14 0 7.30878e+16 6.64034e+16 0 
8772 0 38.9675 5.49816e+17 21823.3 1537.53 493.65 3700.35 35.6197 -0.167611 3.70501e+17 4.93837e+14 0 9.39524e+16 8.48693e+16 0 
12868 0 27.2638 3.84681e+17 21342.3 1273.74 548.35 2664.67 72.3748 5.40405 2.47871e+17 1.94007e+14 0 6.90666e+16 6.75498e+16 0 
16964 0 31.97 4.51084e+17 19022.3 1364.97 563.296 2050.84 73.9293 -4.96503 2.81698e+17 2.82192e+14 0 8.71269e+16 8.19769e+16 0 
5188 0 47.0662 6.64087e+17 21178.5 1570.74 542.045 3157.85 54.5315 0.596693 4.24752e+17 4.23288e+14 0 1.25011e+17 1.139e+17 0 
9284 0 58.2175 8.21426e+17 19674.9 1594.48 607.456 2571.27 40.9326 -6.73637 5.08281e+17 7.76029e+14 0 1.61679e+17 1.50691e+17 0 
13380 0 39.8862 5.6278e+17 17112.6 1433.98 591.064 1723.63 84.3838 -2.19089 3.41206e+17 4.40925e+14 0 1.14711e+17 1.06422e+17 0 
17476 0 50.1925 7.08197e+17 14232.8 1422.88 628.653 1242.05 83.1239 -3.36731 4.21154e+17 6.70207e+14 0 1.52613e+17 1.33742e+17 1.7637e+13 
5700 0 24.1187 3.40306e+17 16516.4 1153.16 539.603 1436.55 89.3912 -9.11146 2.06124e+17 2.29281e+14 0 7.02482e+16 6.37049e+16 0 
9796 0 29.86 4.21313e+17 14384.5 1309.49 583.228 1138.62 95.464 4.37901 2.53338e+17 3.35103e+14 0 8.90846e+16 7.85553e+16 0 
13892 0 24.18 3.4117e+17 16576.3 1200.61 523.964 1432.92 112.754 -1.96268 2.06653e+17 3.35103e+14 0 7.0407e+16 6.37755e+16 0 
17988 0 29.0837 4.10361e+17 14167.5 1269.53 581.664 1104.52 138.383 1.84956 2.45049e+17 2.82192e+14 0 8.59981e+16 7.90315e+16 0 
6212 0 37.5138 5.29305e+17 12219.3 1282.15 595.919 848.4 103.501 2.60111 3.16196e+17 3.17466e+14 0 1.11925e+17 1.00866e+17 0 
10308 0 48.6063 6.85815e+17 9780.52 1324.06 617.552 556.073 108.019 0.40066 4.06004e+17 4.05651e+14 0 1.51784e+17 1.27621e+17 0 
14404 0 37.2175 5.25125e+17 11826.1 1356.01 593.303 803.462 143.414 3.81485 3.11717e+17 3.5274e+14 0 1.12207e+17 1.00848e+17 0 
18500 0 47.115 6.64774e+17 9607.62 1282.21 595.252 542.192 150.666 11.26 3.94699e+17 5.46748e+14 0 1.42877e+17 1.26651e+17 0 
4804 0 25.1775 3.55245e+17 19903.6 1170.45 517.313 2152.58 137.631 7.16083 2.27376e+17 2.46918e+14 0 6.63681e+16 6.12534e+16 0 
8900 0 29.8888 4.21719e+17 17982.1 1235.45 551.029 1751.72 155.356 -1.40045 2.62915e+17 2.64555e+14 0 8.15888e+16 7.69503e+16 0 
12996 0 23.1425 3.26532e+17 19856.8 1279.33 529.725 2165.69 193.503 10.8788 2.0921e+17 2.11644e+14 0 6.0495e+16 5.66148e+16 0 
17092 0 27.535 3.88508e+17 17690.2 1212.39 554.136 1749.44 196.902 4.67229 2.40745e+17 8.81851e+13 0 7.83613e+16 6.93135e+16 0 
5316 0 36.115 5.09569e+17 15067.6 1326.99 586.104 1325.28 178.033 1.69903 3.09794e+17 3.17466e+14 0 1.06598e+17 9.28589e+16 0 
9412 0 46.5637 6.56997e+17 13030.2 1312.89 602.387 1056.9 187.544 2.19727 3.93358e+17 5.46748e+14 0 1.39332e+17 1.23759e+17 0 
13508 0 33.065 4.66534e+17 15405.1 1348.99 575.294 1376.94 221.98 -0.983639 2.85526e+17 2.11644e+14 0 9.65803e+16 8.42168e+16 0 
17604 0 40.8325 5.76131e+17 13185.2 1309.27 592.713 1062.42 235.756 -0.157522 3.48419e+17 4.23288e+14 0 1.19526e+17 1.07762e+17 0 
4740 0 74.595 1.05251e+18 16453.5 1729.18 660.521 1849.94 42.3796 4.36021 6.28672e+17 5.11474e+14 0 2.19546e+17 2.03778e+17 0 
8836 0 105.52 1.48885e+18 12567.2 1754.06 701.82 1199.55 40.6009 -2.37819 8.7245e+17 1.32278e+15 0 3.26867e+17 2.88207e+17 0 
12932 0 69.2975 9.77761e+17 11015.7 1475.78 647.664 828.297 85.2648 -1.22668 5.7158e+17 5.46748e+14 0 2.16018e+17 1.89616e+17 0 
17028 0 99.8137 1.40833e+18 8151.96 1469.34 656.761 496.382 96.1011 0.855524 8.28763e+17 1.25223e+15 0 3.16461e+17 2.61857e+17 0 
5764 0 66.085 9.32434e+17 7833.83 1339.99 650.105 368.558 117.473 -2.22531 5.47559e+17 7.23118e+14 0 2.10498e+17 1.73654e+17 0 
9860 0 92.1737 1.30054e+18 5707.74 1278.12 623.567 173.435 136.804 0.577682 7.73701e+17 7.58392e+14 0 2.92192e+17 2.33884e+17 0 
13956 0 63.045 8.89541e+17 7807.31 1274.36 605.128 361.373 161.48 1.26904 5.28581e+17 9.34762e+14 0 1.94113e+17 1.65911e+17 0 
18052 0 86.9788 1.22724e+18 5855.85 1308.16 621.413 205.933 168.144 2.15214 7.32942e+17 1.26987e+15 0 2.72016e+17 2.21009e+17 0 
4868 0 58.6975 8.28199e+17 10052.6 1342.5 604.556 683.445 194.931 1.58336 4.96553e+17 7.23118e+14 0 1.77816e+17 1.53107e+17 0 
8964 0 79.005 1.11473e+18 7671.15 1323.02 621.937 441.481 199.616 3.31813 6.7347e+17 1.07586e+15 0 2.4295e+17 1.97235e+17 0 
13060 0 52.8675 7.4594e+17 10915.7 1305.52 618.505 806.974 247.101 -0.83976 4.49268e+17 5.11474e+14 0 1.58945e+17 1.37216e+17 0 
17156 0 70.6713 9.97144e+17 8533.9 1322.57 629.453 547.611 240.362 0.828259 6.04315e+17 8.46577e+14 0 2.14907e+17 1.77076e+17 0 
193 0 24.545 8.65801e+16 6558.02 221.797 158.287 6985.06 8.66943 1.27392 8.17829e+16 4.40925e+12 0 2.10321e+15 2.68965e+15 0 
5252 0 183.211 2.58504e+18 7459.16 1627.4 697.536 522.669 52.9387 -2.23391 1.54622e+18 2.2399e+15 0 5.74949e+17 4.61631e+17 0 
84 1 34.22 1.20708e+17 17882 797.824 319.346 5457.74 245.893 2.81645 9.85998e+16 5.29111e+13 0 1.12436e+16 1.08115e+16 0 
148 1 35.62 1.25646e+17 17198.6 984.32 357.416 5394.11 304.714 0.0698945 1.01135e+17 5.73203e+13 0 1.26678e+16 1.17859e+16 0 
212 1 28.655 1.01078e+17 12483.7 580.867 247.098 6280.03 175.542 -1.41335 8.8723e+16 1.32278e+13 0 5.90399e+15 6.43751e+15 0 
276 1 28.9662 1.02176e+17 12047.6 687.15 272.198 6258.14 209.631 0.261863 8.86789e+16 3.5274e+13 0 6.79907e+15 6.66238e+15 0 
92 1 25.8287 9.11084e+16 8455.47 434.369 210.099 6731.65 124.474 -1.95405 8.35686e+16 4.40925e+12 0 3.66409e+15 3.87133e+15 0 
156 1 26.13 9.21711e+16 7993.83 508 221.925 6749.72 144.761 -3.50183 8.42917e+16 3.08648e+13 0 3.95069e+15 3.89778e+15 0 
220 1 24.2963 8.57027e+16 5615.92 328.875 184.569 7011.72 93.5969 -0.481216 8.08305e+16 0 0 2.31486e+15 2.55737e+15 0 
284 1 24.6187 8.68403e+16 5203.31 347.526 188.578 7028.51 97.5258 1.09023 8.17696e+16 2.20463e+13 0 2.53091e+15 2.51768e+15 0 
588 1 37.2812 2.63012e+17 21196.4 1187.52 510.264 2638.24 274.96 -0.494771 1.74606e+17 2.02826e+14 0 4.58562e+16 4.23465e+16 0 
1612 1 28.7037 2.02499e+17 22158.2 1120.64 466.603 3102.6 313.591 2.56865 1.38468e+17 1.32278e+14 0 3.30165e+16 3.08824e+16 0 
2124 1 34.905 2.46248e+17 20535.9 1223.97 522.751 2634.5 375.184 -4.74205 1.64747e+17 1.85189e+14 0 4.30961e+16 3.82194e+16 0 
716 1 24.7812 1.74827e+17 22406.5 963.33 406.849 4030.17 287.828 6.13551 1.27207e+17 1.23459e+14 0 2.51768e+16 2.23196e+16 0 
1228 1 27.5825 1.94589e+17 22133.5 1066.67 444.613 3739.84 352.984 1.77532 1.40003e+17 1.14641e+14 0 2.86161e+16 2.58559e+16 0 
1740 1 20 1.41096e+17 21478.5 875.003 365.293 4610.03 286.785 0.266794 1.07656e+17 3.5274e+13 0 1.69139e+16 1.64906e+16 0 
2252 1 21.2437 1.49871e+17 21482.6 1054.83 404.262 4298.06 343.352 -0.99503 1.12074e+17 5.29111e+13 0 1.97446e+16 1.79986e+16 0 
780 1 30.6812 2.1645e+17 20963.6 1213.54 487.587 3435.57 426.501 -5.03846 1.50964e+17 1.14641e+14 0 3.45509e+16 3.08207e+16 0 
1804 1 22.3125 1.5741e+17 20800 1243.17 409.696 4194.31 396.296 -8.04053 1.15046e+17 7.93666e+13 0 2.17905e+16 2.04942e+16 0 
5828 1 20.6938 2.91981e+17 19498.4 1094.19 522.413 2031.04 220.4 -6.16955 1.85259e+17 1.23459e+14 0 5.4904e+16 5.16941e+16 0 
9924 1 24.83 3.50342e+17 17055.1 1279.37 568.314 1624.78 240.598 1.30279 2.17253e+17 2.64555e+14 0 6.9772e+16 6.30523e+16 0 
14020 1 19.3637 2.73215e+17 20310.1 1149.08 510.707 2224.24 232.065 -0.785029 1.7951e+17 1.94007e+14 0 4.95777e+16 4.39338e+16 0 
18116 1 21.7013 3.06196e+17 17912.9 1245.36 514.927 1772.71 273.244 8.42029 1.93813e+17 1.94007e+14 0 5.90135e+16 5.31756e+16 0 
6340 1 29.825 4.20819e+17 15830.4 1226.98 586.242 1442.97 254.136 0.41005 2.58471e+17 4.76199e+14 0 8.49222e+16 7.69503e+16 0 
10436 1 36.5862 5.16218e+17 13273.7 1264.54 600.692 1084.11 272.647 -1.77344 3.1281e+17 4.76199e+14 0 1.08027e+17 9.49048e+16 0 
14532 1 26.7263 3.77097e+17 15930.6 1293.05 571.308 1487.02 284.765 -1.80603 2.34114e+17 4.40925e+14 0 7.58215e+16 6.67208e+16 0 
18628 1 31.6337 4.4634e+17 14247.6 1310.26 570.699 1236.07 310.01 -0.853602 2.77377e+17 3.88014e+14 0 8.99664e+16 7.86082e+16 0 
5196 1 24.065 3.39548e+17 18483.5 1331.98 553.698 1992.81 317.553 -3.85595 2.18152e+17 2.29281e+14 0 6.4816e+16 5.63503e+16 0 
9292 1 27.7563 3.9163e+17 16599.8 1407.85 570.524 1696.89 338.36 -3.12813 2.46248e+17 2.82192e+14 0 7.75852e+16 6.75145e+16 0 
13388 1 20.7613 2.92933e+17 19662.6 1265.98 533.81 2356.4 337.127 1.52004 1.89898e+17 1.58733e+14 0 5.46748e+16 4.8202e+16 0 
17484 1 23.97 3.38207e+17 18337.5 1287.65 537.789 2070.09 377.156 -5.50795 2.17888e+17 1.58733e+14 0 6.28407e+16 5.73203e+16 0 
4748 1 33.2088 4.68563e+17 14964.8 1333.57 577.323 1446.29 373.568 0.939292 2.9609e+17 3.5274e+14 0 9.38818e+16 7.82378e+16 0 
8844 1 39.8137 5.61757e+17 12947.3 1310.05 599.248 1195.83 402.998 -0.841681 3.49319e+17 5.46748e+14 0 1.15364e+17 9.65274e+16 0 
12940 1 26.895 3.79478e+17 16642 1319.02 599.598 1798.79 409.015 -7.35211 2.41998e+17 2.29281e+14 0 7.52748e+16 6.19765e+16 0 
17036 1 31.3525 4.42372e+17 15003.4 1366.04 580.076 1568.61 452.02 -4.12755 2.81205e+17 3.35103e+14 0 8.82556e+16 7.25763e+16 0 
5772 1 21.8125 3.07766e+17 17786.4 1339.96 565.931 2065.82 437.664 17.0997 1.99916e+17 1.58733e+14 0 5.69499e+16 5.07417e+16 0 
9868 1 23.5963 3.32934e+17 16406.9 1375.25 583.581 1856.29 482.819 1.36448 2.14625e+17 2.46918e+14 0 6.30523e+16 5.50099e+16 0 
13964 1 18.24 2.57359e+17 19533.6 1354.33 535.892 2535.7 436.314 8.39068 1.70109e+17 2.11644e+14 0 4.62266e+16 4.08121e+16 0 
18060 1 19.4788 2.74838e+17 18461.4 1418.7 570.04 2352.12 488.437 0.353556 1.8152e+17 2.99829e+14 0 4.96835e+16 4.33342e+16 0 
5892 1 46.11 6.50594e+17 10836.9 1296.24 618.202 779.338 295.197 -0.680487 3.96004e+17 4.58562e+14 0 1.35787e+17 1.18344e+17 0 
9988 1 59.5175 8.39769e+17 8211.5 1278.73 607.399 495.743 303.24 -1.68975 5.15565e+17 6.87844e+14 0 1.76423e+17 1.47093e+17 0 
14084 1 39.3 5.54508e+17 11736.9 1358.06 592.587 928.855 335.251 1.99339 3.39548e+17 4.40925e+14 0 1.136e+17 1.00919e+17 0 
18180 1 49.7338 7.01724e+17 10086.2 1329.67 600.717 780.877 348.621 -6.05795 4.25775e+17 3.17466e+14 0 1.47657e+17 1.27974e+17 0 
73 1 24.2675 8.56013e+16 6387.48 213.394 154.667 6995.84 13.4928 -2.09627 8.10597e+16 0 0 1.86071e+15 2.68083e+15 0 
137 1 25.9262 9.14523e+16 9239.09 271.353 178.785 6739.32 25.2071 1.77202 8.4252e+16 0 0 3.19671e+15 4.0036e+15 0 
201 1 24.1013 8.50148e+16 5241.95 196.592 157.461 7088.56 17.7829 0.762134 8.12361e+16 4.40925e+12 0 1.71961e+15 2.05471e+15 0 
265 1 24.6675 8.70122e+16 7324.89 242.407 165.518 6908.55 26.5863 -0.172395 8.13684e+16 8.81851e+12 0 2.52209e+15 3.11293e+15 0 
81 1 23.7425 8.37494e+16 4366.92 175.994 148.456 7158.64 14.4095 0.305835 8.07026e+16 0 0 1.30955e+15 1.73725e+15 0 
145 1 24.3038 8.57291e+16 5967.62 235.511 162.489 7023.69 27.1685 -0.797438 8.13331e+16 0 0 1.8122e+15 2.58382e+15 0 
209 1 23.3438 8.23428e+16 3463.31 172.002 149.6 7226.61 17.437 0.333525 7.99133e+16 4.40925e+12 0 1.02295e+15 1.40214e+15 0 
273 1 24.145 8.51692e+16 4568.96 214.632 157.36 7135.7 25.162 1.03412 8.18225e+16 1.7637e+13 0 1.4771e+15 1.85189e+15 0 
89 1 23.285 8.21356e+16 2651.78 164.672 145.295 7288.3 15.5551 0.116052 8.02793e+16 0 0 8.15712e+14 1.04058e+15 0 
153 1 23.2425 8.19857e+16 3532.81 177.636 148.982 7218.95 21.9616 0.612833 7.93842e+16 0 0 1.17727e+15 1.42419e+15 0 
217 1 22.8475 8.05924e+16 2114.77 156.163 142.653 7328.73 11.9723 1.13188 7.91064e+16 0 0 6.87844e+14 7.98075e+14 0 
281 1 23.2838 8.21312e+16 2681.14 178.414 148.047 7282.5 19.9499 -0.105419 8.02043e+16 0 0 8.73032e+14 1.05381e+15 0 
74 1 27.2425 9.60953e+16 12828.6 365.58 206.667 6370.33 43.1687 0.514124 8.51559e+16 1.32278e+13 0 5.03537e+15 5.89076e+15 0 
138 1 31.1363 1.0983e+17 17488.8 516.679 248.992 5750.53 76.0021 1.58021 9.188e+16 4.40925e+13 0 8.73914e+15 9.16684e+15 0 
202 1 26.5 9.34762e+16 10764.3 360.905 190.061 6576.93 48.0054 -0.367502 8.47415e+16 2.20463e+13 0 3.97715e+15 4.73554e+15 0 
266 1 28.6513 1.01065e+17 14343 436.94 221.468 6171.6 79.2879 -2.55361 8.83174e+16 8.81851e+12 0 6.02745e+15 6.71089e+15 0 
82 1 25.3275 8.93403e+16 8316.43 285.704 174.491 6808.67 45.241 1.55407 8.29293e+16 1.32278e+13 0 3.09971e+15 3.29812e+15 0 
146 1 26.8762 9.48034e+16 11166.1 362.534 200.942 6525.15 75.5578 -0.855015 8.56365e+16 2.64555e+13 0 4.44453e+15 4.69586e+15 0 
210 1 24.3287 8.58173e+16 6516.81 249.912 167.878 6966.85 41.9971 0.592117 8.0976e+16 1.32278e+13 0 2.25313e+15 2.575e+15 0 
274 1 25.3837 8.95387e+16 8195.42 303.403 181.212 6813.97 65.5464 -0.048189 8.31585e+16 1.32278e+13 0 3.02475e+15 3.34221e+15 0 
90 1 24.02 8.47282e+16 4364.62 220.307 153.977 7151.46 33.1072 2.28846 8.15271e+16 4.40925e+12 0 1.35805e+15 1.83866e+15 0 
154 1 24.2925 8.56895e+16 5545.23 262.153 171.236 7041.89 48.1139 2.32599 8.12493e+16 4.40925e+12 0 1.92243e+15 2.51328e+15 0 
218 1 23.2662 8.20695e+16 2972.92 200.019 147.953 7257.94 24.1064 2.01882 7.97766e+16 0 0 9.61217e+14 1.33159e+15 0 
282 1 23.6638 8.34716e+16 4270.09 232.849 156.622 7154.5 44.0518 -1.0077 8.02396e+16 4.40925e+12 0 1.52119e+15 1.70638e+15 0 
83 1 28.7138 1.01285e+17 13929 452.976 225.245 6195.13 108.598 0.802533 8.86481e+16 3.08648e+13 0 6.26555e+15 6.34051e+15 0 
211 1 26.2162 9.24753e+16 10058.3 360.814 197.138 6617.11 90.0061 -1.70643 8.38949e+16 2.64555e+13 0 4.16234e+15 4.39162e+15 0 
91 1 24.9375 8.79646e+16 6957.54 292.206 180.849 6911.41 71.1089 -1.06729 8.25192e+16 0 0 2.60146e+15 2.84397e+15 0 
219 1 24.0463 8.48208e+16 4501.58 260.617 162.507 7128.39 52.1612 3.84634 8.13199e+16 8.81851e+12 0 1.50356e+15 1.98857e+15 0 
75 1 37.0975 1.30858e+17 21708.1 681.041 317.783 4895.78 127.276 -1.31857 1.01924e+17 3.96833e+13 0 1.45549e+16 1.43389e+16 0 
203 1 32.5812 1.14927e+17 18237.1 587.524 268.3 5577.05 129.118 4.58454 9.50018e+16 2.64555e+13 0 9.51076e+15 1.03882e+16 0 
1731 1 17.6487 1.24509e+17 22894 706.605 317.303 4543.5 92.386 1.4274 9.34145e+16 1.14641e+14 0 1.47357e+16 1.62437e+16 0 
2243 1 21.3275 1.50461e+17 23800.6 859.761 386.163 3975.09 124.366 4.29967 1.09314e+17 7.93666e+13 0 2.04413e+16 2.06265e+16 0 
267 1 38.445 1.35611e+17 21303.5 817.806 332.684 4829 211.276 0.78951 1.05258e+17 8.37758e+13 0 1.545e+16 1.48195e+16 0 
147 1 31.0712 1.09601e+17 16627.8 599.688 272.494 5781.12 172.136 0.483624 9.22637e+16 1.32278e+13 0 8.69064e+15 8.63332e+15 0 
275 1 27.4913 9.69727e+16 11558.4 505.271 230.513 6427.23 127.199 -2.7183 8.63773e+16 2.64555e+13 0 5.27788e+15 5.29111e+15 0 
155 1 25.6275 9.03985e+16 7821.58 391.623 189.177 6818.11 93.0718 -0.877651 8.35862e+16 1.7637e+13 0 3.31135e+15 3.48331e+15 0 
283 1 24.3712 8.59672e+16 5102.07 279.344 169.952 7070.81 67.4039 -0.298404 8.18799e+16 8.81851e+12 0 1.9048e+15 2.17376e+15 0 
651 1 24.9688 1.7615e+17 23301 905.548 406.049 3976.32 166.026 2.60968 1.27454e+17 5.29111e+13 0 2.4489e+16 2.41539e+16 0 
1163 1 30.1612 2.12782e+17 22903.6 1114.2 437.842 3393.22 217.237 -1.26888 1.47172e+17 1.58733e+14 0 3.39072e+16 3.15438e+16 0 
1675 1 20.9788 1.48001e+17 22849.4 884.209 374.531 4215.53 198.054 10.9408 1.08723e+17 1.14641e+14 0 1.97358e+16 1.94272e+16 0 
2187 1 24.5338 1.73081e+17 23133.2 968.905 426.211 3684.28 246.946 3.00749 1.23001e+17 1.7637e+14 0 2.52915e+16 2.46125e+16 0 
1795 1 25.3938 1.79148e+17 23448.1 980.725 428.48 3290.97 160.059 1.72635 1.22789e+17 1.32278e+14 0 2.84397e+16 2.77871e+16 0 
2307 1 32.3263 2.28055e+17 21592.7 1036.73 483.868 2563.96 200.93 2.14009 1.49218e+17 1.49915e+14 0 4.00978e+16 3.85898e+16 0 
257 1 26.0512 9.18933e+16 10032.4 283.552 177.027 6667.32 16.4495 -0.311174 8.37847e+16 0 0 3.53622e+15 4.5724e+15 0 
194 1 28.4237 1.00262e+17 14671 402.378 213.677 6158.92 28.3274 -0.150963 8.69461e+16 2.20463e+13 0 6.21264e+15 7.08126e+15 0 
258 1 33.115 1.1681e+17 19326.3 575.273 260.969 5468.46 52.2716 -1.14025 9.52884e+16 1.32278e+13 0 1.03485e+16 1.11598e+16 0 
1292 2 30.8225 2.17447e+17 19906.5 1365.01 517.203 3404.43 487.557 -4.32782 1.51229e+17 9.70036e+13 0 3.56268e+16 3.04944e+16 0 
2316 2 22.47 1.58522e+17 19999.1 1259.25 468.344 4295.44 434.885 6.49501 1.16881e+17 9.70036e+13 0 2.17994e+16 1.97446e+16 0 
13444 2 164.415 2.31983e+18 5221.8 1393.95 656.402 211.283 119.647 -2.71946 1.40819e+18 1.35805e+15 0 5.12285e+17 3.97997e+17 0 
6276 2 142.236 2.0069e+18 3948.78 1225.64 617.858 50.1409 152.504 0.609661 1.2305e+18 1.79898e+15 0 4.35987e+17 3.38613e+17 0 
14468 2 126.265 1.78155e+18 4290.04 1202.15 604.268 89.3357 156.205 2.32336 1.09697e+18 9.70036e+14 0 3.83094e+17 3.00517e+17 0 
5380 2 114.415 1.61435e+18 5466.59 1286.05 619.815 247.004 181.917 0.0993467 9.86297e+17 9.87673e+14 0 3.47537e+17 2.79529e+17 0 
9476 2 186.232 2.62767e+18 3556.08 1123.06 595.384 104.213 147.823 -2.02108 1.65433e+18 1.65788e+15 0 5.59129e+17 4.12547e+17 0 
13572 2 99.8438 1.40876e+18 6058.39 1282.79 617.452 303.392 234.746 -1.49027 8.63826e+17 1.00531e+15 0 3.02863e+17 2.41063e+17 0 
17668 2 157.499 2.22225e+18 4033.31 1160.5 601.664 144.492 200.332 1.26121 1.4022e+18 1.7637e+15 0 4.68245e+17 3.50042e+17 0 
6404 2 82.51 1.16418e+18 6714.31 1264.2 616.534 376.309 292.397 0.460247 7.19749e+17 1.0935e+15 0 2.46707e+17 1.96635e+17 0 
10500 2 122.302 1.72564e+18 4596.49 1162.5 609.396 194.989 269.047 4.58463 1.09069e+18 1.58733e+15 0 3.62776e+17 2.70587e+17 0 
14596 2 64.4188 9.08924e+17 8014.76 1272.98 611.884 545.111 363.94 3.02384 5.68653e+17 8.11303e+14 0 1.88434e+17 1.51026e+17 0 
18692 2 86.6863 1.22311e+18 6180.93 1250.35 625.83 401.104 352.908 -1.72842 7.68127e+17 1.55206e+15 0 2.59388e+17 1.94042e+17 0 
5260 2 48.5475 6.84987e+17 10814.8 1382.33 618.572 961.27 428.25 3.87277 4.30643e+17 6.34933e+14 0 1.43265e+17 1.10443e+17 0 
9356 2 57.5262 8.11673e+17 9364.37 1451.15 640.388 867.564 457.138 0.626623 5.1359e+17 5.64385e+14 0 1.67534e+17 1.29985e+17 0 
13452 2 35.8312 5.05565e+17 14129.3 1470.46 609.629 1514.45 478.57 -2.62838 3.25773e+17 3.5274e+14 0 9.90142e+16 8.04248e+16 0 
17548 2 39.4237 5.56254e+17 12260.1 1470.97 611.95 1362.63 517.19 2.78519 3.53111e+17 4.40925e+14 0 1.11272e+17 9.14303e+16 0 
6284 2 25.9788 3.6655e+17 15739.4 1430.03 594.069 1888.93 509.911 7.42918 2.34608e+17 1.7637e+14 0 7.07068e+16 6.10594e+16 0 
10380 2 27.7888 3.92089e+17 15127.4 1567.71 603.958 1911.53 543.81 4.30952 2.54114e+17 2.29281e+14 0 7.49221e+16 6.28231e+16 0 
14476 2 20.0575 2.83004e+17 17822.1 1345 591.476 2394.56 519.012 -2.63759 1.8727e+17 2.99829e+14 0 5.14472e+16 4.39867e+16 0 
18572 2 20.4125 2.88013e+17 16985.9 1585.55 593.974 2409.59 549.569 -8.31768 1.88504e+17 2.29281e+14 0 5.45513e+16 4.47275e+16 0 
9348 2 484.685 6.83872e+18 2847.34 1238.26 619.305 78.307 55 -1.01988 4.49033e+18 5.69676e+15 0 1.36172e+18 9.80971e+17 0 
17540 2 349.637 4.93325e+18 2549.87 1114.27 595.792 25.0635 106.894 -0.414458 3.18066e+18 3.84487e+15 0 1.02587e+18 7.22871e+17 0 
8 3 8.86625 1.56374e+16 8115.97 3544.05 1065.05 4812.92 -181.678 -6.90093 9.53722e+15 6.61388e+12 0 3.29371e+15 2.79988e+15 0 
7 3 8.1325 1.43433e+16 8930.93 3767.78 1104.9 4415.04 -337.859 -12.9487 8.67962e+15 1.10231e+13 0 3.07986e+15 2.5728e+15 0 
80 3 25.1975 8.88818e+16 5095.92 1485.36 466.405 6459.76 23.5471 -3.54509 6.99352e+16 2.64555e+13 0 9.85468e+15 9.06543e+15 0 
144 3 23.6988 8.35951e+16 4900.71 1444.78 452.68 6506.44 14.172 -1.12994 6.60815e+16 3.5274e+13 0 9.26825e+15 8.21003e+15 0 
208 3 28.675 1.01148e+17 4622.16 1327.89 428.618 6612.11 113.369 -0.863715 8.19548e+16 1.7637e+13 0 1.01148e+16 9.06102e+15 0 
272 3 28.2375 9.96051e+16 4349.54 1287.76 397.545 6669.87 100.922 -5.80695 8.20254e+16 4.85018e+13 0 9.18007e+15 8.35113e+15 0 
88 3 27.625 9.74445e+16 4028.71 1103.02 344.405 6832.11 139.115 2.78471 8.44549e+16 2.20463e+13 0 7.08567e+15 5.88195e+15 0 
152 3 27.1525 9.57778e+16 3900.47 1067.89 336.921 6846.55 131.458 -3.52343 8.35113e+16 3.5274e+13 0 6.72852e+15 5.50275e+15 0 
216 3 26.1962 9.24047e+16 3506.94 822.163 281.56 6981.46 136.535 3.95765 8.36171e+16 2.20463e+13 0 4.54594e+15 4.21966e+15 0 
280 3 26.1588 9.22725e+16 3214.62 788.506 284.055 7012.48 130.073 0.590865 8.34628e+16 1.7637e+13 0 4.75759e+15 4.03447e+15 0 
96 3 24.8475 8.76472e+16 2879.73 633.142 245.375 7116.53 125.344 1.53069 8.16814e+16 8.81851e+12 0 3.24962e+15 2.70728e+15 0 
160 3 25.4013 8.96005e+16 2733.44 638.848 236.931 7124.31 120.007 -0.892767 8.38508e+16 8.81851e+12 0 3.09089e+15 2.64996e+15 0 
224 3 24.1962 8.53499e+16 2443.61 545.83 213.938 7198.14 106.069 -0.432694 8.14213e+16 1.32278e+13 0 2.18258e+15 1.73284e+15 0 
288 3 24.0388 8.47944e+16 2170.62 487.89 207.102 7222.14 102.813 0.874397 8.07731e+16 8.81851e+12 0 2.24872e+15 1.7637e+15 0 
79 3 28.0138 9.88158e+16 5895.34 1901.37 541.669 6216.02 39.6592 5.37613 7.30393e+16 3.5274e+13 0 1.35893e+16 1.21519e+16 0 
143 3 26.35 9.29471e+16 5473.82 1627.18 488.795 6339.75 32.2455 4.66548 7.08038e+16 4.40925e+13 0 1.18521e+16 1.02471e+16 0 
207 3 30.8962 1.08984e+17 5514.62 1511.94 451.768 6465.97 159.816 1.19586 8.72327e+16 3.08648e+13 0 1.1442e+16 1.0278e+16 0 
271 3 29.6825 1.04702e+17 5019.92 1406.98 434.945 6550.5 131.295 7.59895 8.4618e+16 4.85018e+13 0 1.07321e+16 9.30353e+15 0 
87 3 28.3087 9.98564e+16 5113.08 1147.06 339.748 6709.13 179.931 0.495613 8.56586e+16 2.64555e+13 0 7.61478e+15 6.55656e+15 0 
151 3 27.8388 9.81985e+16 4474.64 1094.34 344.586 6783.48 157.037 -3.2441 8.49267e+16 4.40925e+13 0 7.0019e+15 6.22587e+15 0 
215 3 26.57 9.37231e+16 4401.78 853.465 283.732 6908.34 165.162 0.841483 8.47238e+16 3.5274e+13 0 4.84577e+15 4.11383e+15 4.40925e+12 
279 3 26.2075 9.24444e+16 3763.08 864.212 282.734 6965.89 149.402 -0.604579 8.34187e+16 1.7637e+13 0 4.8105e+15 4.19761e+15 0 
95 3 25.365 8.94726e+16 3649.66 635.757 231.083 7056.27 137.372 4.877 8.33702e+16 0 0 3.39072e+15 2.71169e+15 0 
159 3 25.4175 8.96578e+16 3315.27 609.612 247.091 7078.28 141.702 3.25082 8.34275e+16 3.08648e+13 0 3.44804e+15 2.75137e+15 0 
223 3 24.4387 8.62053e+16 3084.48 507.167 209.97 7155.93 119.928 -3.51555 8.19063e+16 1.7637e+13 0 2.34572e+15 1.93566e+15 0 
287 3 24.1112 8.50501e+16 2651.45 492.311 197.6 7190.45 117.32 -0.637537 8.08481e+16 0 0 2.17376e+15 2.02826e+15 0 
142 3 30.3888 1.07193e+17 6411.28 1899.47 572.557 6087 68.8728 -7.72493 7.74662e+16 4.40925e+13 0 1.5547e+16 1.41361e+16 0 
270 3 31.5063 1.11135e+17 6330.13 1517.59 467.721 6352.97 192.378 1.36061 8.8163e+16 2.20463e+13 0 1.20417e+16 1.09085e+16 0 
150 3 28.7987 1.01585e+17 5873.5 1125.52 367.627 6646.28 209.196 -0.126135 8.72327e+16 3.5274e+13 0 7.77793e+15 6.53892e+15 0 
278 3 26.9587 9.50944e+16 5342.19 858.809 298.445 6831.1 189.753 0.0573642 8.52573e+16 1.7637e+13 0 5.23819e+15 4.58122e+15 0 
158 3 25.385 8.95431e+16 4454.85 636.153 238.381 6997.1 152.928 5.70639 8.28675e+16 2.20463e+13 0 3.68614e+15 2.96743e+15 0 
286 3 24.215 8.54161e+16 3313.81 469.54 201.502 7145.76 118.042 0.637386 8.09142e+16 2.20463e+13 0 2.39423e+15 2.08558e+15 0 
94 3 25.6375 9.04338e+16 5274.3 606.645 239.373 6933.49 167.464 -2.11641 8.33393e+16 4.40925e+12 0 3.717e+15 3.37308e+15 0 
222 3 24.4138 8.61172e+16 4002.18 446.996 202.958 7093.14 125.202 2.05682 8.12273e+16 8.81851e+12 0 2.48682e+15 2.39423e+15 0 
6 3 6.19625 1.17714e+16 9500.9 3594.28 1035.54 3751.65 -588.2 -17.6556 6.77027e+15 0 0 2.68341e+15 2.31771e+15 0 
206 3 33.7188 1.1894e+17 8088.91 1766.42 506.817 6121.3 254.584 1.05892 9.36702e+16 3.08648e+13 0 1.38892e+16 1.13494e+16 0 
86 3 29.9513 1.0565e+17 7754.89 1259.26 380.793 6427.51 254.646 0.0809997 8.90184e+16 2.20463e+13 0 9.06102e+15 7.54864e+15 0 
214 3 27.8788 9.83396e+16 6601.02 877.521 290.735 6714.13 208.688 -1.91618 8.73738e+16 4.40925e+13 0 6.08918e+15 4.83254e+15 0 
1165 3 18.23 1.28609e+17 8041.39 2360.15 692.517 5521.77 58.6048 -11.0307 8.51427e+16 2.64555e+13 0 2.31662e+16 2.02738e+16 0 
2189 3 19.8513 1.40047e+17 9144.21 2347.16 640.872 5522.43 237.659 3.97913 9.718e+16 7.05481e+13 0 2.32015e+16 1.95947e+16 0 
1293 3 18.8538 1.3301e+17 10248.6 1938.86 546.65 5689.8 315.146 5.45567 1.0046e+17 5.29111e+13 0 1.80339e+16 1.44624e+16 0 
2317 3 16.99 1.19861e+17 10540.4 1560.35 493.347 5884.92 340.043 1.01439 9.41552e+16 7.05481e+13 0 1.41184e+16 1.1517e+16 0 
590 3 17.1175 1.20761e+17 7360.92 2108.2 628.821 5826.67 22.6021 -2.60304 8.46136e+16 8.81851e+13 0 1.90392e+16 1.70197e+16 0 
1102 3 15.135 1.06775e+17 6924.98 2080.02 607.881 5898.38 12.3021 8.97307 7.43048e+16 3.5274e+13 0 1.72666e+16 1.51678e+16 0 
1614 3 17.9275 1.26475e+17 7945.96 2128.97 667.074 5734.95 194.393 1.04265 8.85907e+16 7.05481e+13 0 2.04854e+16 1.73284e+16 0 
2126 3 17.2787 1.21898e+17 7175.44 2081.13 621.029 5884.64 157.099 2.49574 8.6633e+16 3.5274e+13 0 1.85012e+16 1.67287e+16 0 
5 3 166.393 2.84565e+18 2913.67 1015.39 575.889 109.268 188.211 -0.223361 1.88712e+18 2.58668e+15 0 5.6101e+17 3.94928e+17 0 
5 3 2.19625 1.55867e+16 8734.8 3180.64 941.841 2496.14 -647.426 26.793 8.41876e+15 1.77424e+13 0 4.10736e+15 3.04282e+15 0 
85 3 34.235 1.20761e+17 14588.8 1201.13 388.23 5642.92 339.515 -1.58457 9.74622e+16 4.40925e+13 0 1.25002e+16 1.07542e+16 0 
149 3 31.6075 1.11492e+17 10712.5 1218.98 366.1 6127.78 302.215 -1.30155 9.25238e+16 2.64555e+13 0 1.02074e+16 8.73473e+15 0 
213 3 28.9075 1.01968e+17 10560.8 787.144 285.62 6376.11 227.194 2.29548 8.91199e+16 3.08648e+13 0 6.75057e+15 6.06713e+15 0 
277 3 27.9075 9.8441e+16 8492.55 845.931 291.269 6546.86 232.536 -2.03298 8.65934e+16 3.5274e+13 0 6.14209e+15 5.6703e+15 0 
93 3 26.07 9.19594e+16 7090.95 505.978 230.28 6810.06 156.648 1.32258 8.42961e+16 1.7637e+13 0 3.82282e+15 3.82282e+15 0 
157 3 25.93 9.14656e+16 6542.06 616.124 236.671 6831.45 172.84 0.933489 8.3842e+16 8.81851e+12 0 4.06092e+15 3.55386e+15 0 
221 3 24.9013 8.78368e+16 5342.15 407.654 194.455 7006.92 120.598 3.46467 8.25016e+16 1.7637e+13 0 2.74256e+15 2.575e+15 0 
285 3 24.57 8.66683e+16 4510.94 468.87 199.635 7059.85 119.525 -4.26799 8.17652e+16 4.40925e+12 0 2.6676e+15 2.23108e+15 0 
2125 3 30.9625 2.18434e+17 15433.7 2148.74 687.317 3744.78 515.421 -6.34835 1.47296e+17 1.32278e+14 0 3.96657e+16 3.1341e+16 0 
653 3 21.2975 1.5025e+17 9756.27 2456.72 748.771 5097.25 118.309 5.78132 9.84939e+16 9.70036e+13 0 2.75667e+16 2.40922e+16 0 
1677 3 22.0712 1.55708e+17 12027.9 2430.64 694.783 4921.75 360.81 4.51108 1.07039e+17 5.29111e+13 0 2.68347e+16 2.17817e+16 0 
717 3 28.9125 2.03972e+17 18556 1562.76 555.794 3801.43 511.849 -1.93439 1.43565e+17 8.81851e+13 0 3.28225e+16 2.74961e+16 0 
1229 3 24.7888 1.7488e+17 16319.6 1809.71 563.63 4475.73 493.191 -2.54414 1.25011e+17 1.14641e+14 0 2.67024e+16 2.30516e+16 0 
1741 3 22.05 1.55559e+17 18361.2 1368.7 463.876 4554.79 449.32 5.38416 1.1502e+17 8.81851e+13 0 2.11997e+16 1.92508e+16 0 
2253 3 19.5275 1.37763e+17 15914.5 1514.97 512.965 5038.5 429.601 1.32321 1.03476e+17 9.70036e+13 0 1.84307e+16 1.57587e+16 0 
781 3 21.4713 1.51476e+17 13064 1925.49 563.597 5234.97 403.42 2.16048 1.12604e+17 8.81851e+13 0 2.11027e+16 1.76811e+16 0 
1805 3 18.16 1.28115e+17 13160.7 1574.16 475.371 5493.18 399.11 2.96869 9.86174e+16 5.29111e+13 0 1.58469e+16 1.35981e+16 0 
4685 3 69.0825 9.74727e+17 7995.6 1350.14 628.528 799.996 458.485 1.28406 6.26202e+17 3.88014e+14 0 1.98505e+17 1.49632e+17 0 
8781 3 66.6125 9.39877e+17 7949.4 1427.58 641.689 1011.2 450.694 4.70515 6.14491e+17 5.99659e+14 0 1.87464e+17 1.37322e+17 0 
12877 3 40.3375 5.69147e+17 11529.9 1624.01 649.713 1420.16 548.594 0.290101 3.64734e+17 3.35103e+14 0 1.14958e+17 8.91199e+16 0 