ITEM: TIMESTEP
19000
ITEM: NUMBER OF CELLS
246
ITEM: BOX BOUNDS oo ao pp
-10 10
0 10
-0.5 0.5
ITEM: CELLS id proc f_avg_n f_avg_nrho f_avg_temp_tra f_avg_temp_rot f_avg_temp_vib f_avg_vel[1] f_avg_vel[2] f_avg_vel[3] f_avg_nrho_CO2 f_avg_nrho_O2 f_avg_nrho_C2 f_avg_nrho_CO f_avg_nrho_O f_avg_nrho_C 
65 0 24.4333 8.61862e+16 6492.21 196.482 156.889 6990.31 13.5769 -0.147675 8.13948e+16 1.7637e+13 0 2.14584e+15 2.62792e+15 0 
129 0 26.915 9.49401e+16 10012.7 318.964 178.638 6666.09 19.4386 -0.940845 8.64214e+16 1.1758e+13 0 3.90954e+15 4.59738e+15 0 
66 0 29.42 1.03776e+17 13865.4 390.228 213.852 6249.44 28.5073 -3.20727 9.0619e+16 2.3516e+13 0 5.94955e+15 7.18415e+15 0 
130 0 34.8417 1.22901e+17 18961.6 539.819 267.424 5516.79 31.0555 -1.83759 9.99078e+16 3.5274e+13 0 1.11701e+16 1.17874e+16 0 
579 0 30.07 2.12138e+17 16344.2 638.617 257.291 5843.88 46.1279 -13.0268 1.75712e+17 2.9395e+14 0 1.6567e+16 1.95653e+16 0 
1091 0 32.5283 2.29481e+17 19487.3 713.89 293.369 5332.84 68.0067 17.3969 1.82402e+17 3.5274e+13 0 2.17994e+16 2.52445e+16 0 
1603 0 17.6733 1.24682e+17 23888.8 750.374 357.14 4055.48 44.7171 -4.06034 9.02192e+16 5.87901e+13 0 1.70609e+16 1.73431e+16 0 
2115 0 21.755 1.53477e+17 23898.7 840.106 415.873 3312.15 61.2009 -2.66596 1.05269e+17 3.5274e+13 0 2.43391e+16 2.38335e+16 0 
707 0 21.955 1.54888e+17 21429.7 723.983 313.439 4935.13 64.4603 -5.35464 1.18391e+17 3.5274e+13 0 1.76253e+16 1.88363e+16 0 
1219 0 24.5883 1.73466e+17 23367.6 821.095 358.477 4228.16 89.0049 2.56447 1.27198e+17 2.3516e+13 0 2.2693e+16 2.35513e+16 0 
643 0 38.9333 2.74667e+17 21597.5 940.04 357.164 4731.75 58.7837 -8.93818 2.05542e+17 1.05822e+14 0 3.50271e+16 3.39924e+16 0 
1667 0 27.8467 1.96453e+17 22114.4 1028.34 449.478 2605.4 64.6541 -3.63525 1.27175e+17 7.05481e+13 0 3.52388e+16 3.39689e+16 0 
2179 0 37.2683 2.62921e+17 19081.1 1140.59 516.237 1875.64 89.3272 2.91644 1.6299e+17 1.99886e+14 0 5.10063e+16 4.87252e+16 0 
771 0 29.805 2.10269e+17 23697.6 925.164 403.793 3552.2 106.751 -3.85029 1.47869e+17 1.05822e+14 0 2.99359e+16 3.2358e+16 0 
1283 0 38.3383 2.7047e+17 21935.6 1135.75 490.621 2763.83 131.539 -1.38992 1.77546e+17 1.52854e+14 0 4.71731e+16 4.55976e+16 0 
5251 0 28.4983 4.02101e+17 18425.6 968.149 362.169 5302.85 64.6265 7.58026 3.08789e+17 1.1758e+14 0 4.57152e+16 4.74789e+16 0 
9347 0 31.15 4.39514e+17 21085.1 998.34 404.064 4718.13 54.6218 24.5545 3.24545e+17 1.64612e+14 0 5.87665e+16 5.60387e+16 0 
13443 0 19.84 2.79935e+17 22979.6 1054.01 471.256 3357.47 47.2287 -10.96 1.89022e+17 1.1758e+14 0 4.55505e+16 4.52448e+16 0 
17539 0 22.8833 3.22875e+17 22238.9 1178.21 496.274 2949.35 71.7918 18.2829 2.12844e+17 1.41096e+14 0 5.69793e+16 5.29111e+16 0 
4676 0 33.7667 4.76435e+17 21836 1231.87 463.174 4154.59 45.0788 6.34144 3.36397e+17 2.82192e+14 0 7.29937e+16 6.6762e+16 0 
8772 0 38.5383 5.43761e+17 21899.3 1426.39 495.002 3672.61 34.0974 12.8869 3.66027e+17 2.3516e+14 0 9.28177e+16 8.46812e+16 0 
12868 0 27.27 3.84769e+17 21188.5 1265.38 522.673 2663.47 72.6131 9.91926 2.45719e+17 2.11644e+14 0 7.05481e+16 6.82905e+16 0 
16964 0 32.0067 4.51602e+17 19095.8 1293.09 559.352 2046.09 74.8374 -4.69573 2.83815e+17 3.05708e+14 0 8.58335e+16 8.16476e+16 0 
5188 0 46.3183 6.53534e+17 21147.7 1631.23 544.313 3169.32 53.8455 3.96376 4.15928e+17 3.99772e+14 0 1.24635e+17 1.12571e+17 0 
9284 0 58.195 8.21109e+17 19665.9 1568.74 615.366 2572.45 40.091 -1.73165 5.06653e+17 7.99545e+14 0 1.62801e+17 1.50855e+17 0 
13380 0 39.6333 5.59211e+17 16985.5 1459.21 594.948 1701.88 87.2613 -1.3754 3.40771e+17 4.46804e+14 0 1.14782e+17 1.03212e+17 0 
17476 0 50.175 7.0795e+17 14388.1 1420.94 631.97 1270.22 86.4882 -1.65202 4.21007e+17 6.11417e+14 0 1.51373e+17 1.34935e+17 2.3516e+13 
5700 0 24.2917 3.42746e+17 16463.6 1176.36 527.879 1431.08 90.5176 -8.84014 2.08658e+17 1.88128e+14 0 6.95369e+16 6.43634e+16 0 
9796 0 29.95 4.22583e+17 14634.5 1344.72 567.837 1180.58 103.569 5.25795 2.54396e+17 3.05708e+14 0 8.84908e+16 7.93901e+16 0 
13892 0 24.1833 3.41218e+17 16942.1 1186.1 522.417 1501.39 109.171 -8.09325 2.05906e+17 3.76256e+14 0 7.03129e+16 6.4622e+16 0 
17988 0 28.8417 4.06945e+17 14204 1290.27 579.377 1097.09 143.169 1.08159 2.45319e+17 2.82192e+14 0 8.4399e+16 7.69444e+16 0 
6212 0 37.3117 5.26453e+17 12503.7 1267.76 591.058 877.284 99.1617 6.00739 3.1662e+17 3.76256e+14 0 1.10173e+17 9.92847e+16 0 
10308 0 48.7633 6.88032e+17 9571.9 1339.7 622.059 531.323 113.798 2.70374 4.0798e+17 4.7032e+14 0 1.50902e+17 1.2868e+17 0 
14404 0 37.05 5.22761e+17 11714.3 1346.36 589.135 783.443 141.142 1.96228 3.102e+17 3.99772e+14 0 1.11325e+17 1.00837e+17 0 
18500 0 47.2017 6.65997e+17 9652.81 1323.2 598.821 549.63 148.259 10.8442 3.93729e+17 6.81965e+14 0 1.44482e+17 1.27104e+17 0 
4804 0 25.5167 3.6003e+17 20165.6 1173.09 528.687 2225.47 128.118 10.8925 2.31233e+17 3.05708e+14 0 6.6033e+16 6.24586e+16 0 
8900 0 30.1083 4.24817e+17 18027.1 1256.37 540.22 1758.14 154.85 -3.68548 2.6425e+17 2.58676e+14 0 8.18828e+16 7.84259e+16 0 
12996 0 22.9967 3.24474e+17 19588.9 1292.96 527.092 2089.67 196.244 5.47718 2.07317e+17 2.58676e+14 0 6.01305e+16 5.67677e+16 0 
17092 0 27.6817 3.90578e+17 17778.4 1210.98 560.659 1773.83 199.968 9.07996 2.41933e+17 9.40641e+13 0 7.97193e+16 6.88314e+16 0 
5316 0 35.7083 5.03831e+17 14959 1326.11 587.572 1304.37 181.09 -3.2681 3.05567e+17 3.76256e+14 0 1.05963e+17 9.19241e+16 0 
9412 0 46.36 6.54122e+17 13054.1 1315.15 598.935 1056.75 187.613 2.06925 3.92882e+17 6.11417e+14 0 1.37945e+17 1.22683e+17 0 
13508 0 33.0017 4.65641e+17 15204.5 1377.47 578.146 1341.44 227.642 -0.94288 2.83627e+17 2.11644e+14 0 9.70036e+16 8.47988e+16 0 
17604 0 40.8333 5.76143e+17 13308.6 1294.09 589.13 1078.38 232.443 0.498693 3.49236e+17 3.76256e+14 0 1.18215e+17 1.08315e+17 0 
4740 0 74.2033 1.04698e+18 16278.6 1736.63 656.415 1823.3 39.9931 8.89637 6.22328e+17 5.64385e+14 0 2.19687e+17 2.04401e+17 0 
8836 0 104.383 1.47281e+18 12438.3 1772.34 698.96 1171.12 39.3912 -3.05825 8.63955e+17 1.45799e+15 0 3.22193e+17 2.85202e+17 0 
12932 0 68.8717 9.71753e+17 11037.1 1478.7 651.772 833.005 83.8469 -2.71157 5.68265e+17 5.87901e+14 0 2.13784e+17 1.89116e+17 0 
17028 0 99.9583 1.41037e+18 8102.81 1458.29 661.701 487.058 96.1799 1.87314 8.27341e+17 1.43448e+15 0 3.19559e+17 2.62039e+17 0 
5764 0 65.695 9.26931e+17 7753.12 1324.31 636.854 351.636 117.882 -1.60363 5.45407e+17 6.81965e+14 0 2.08352e+17 1.7249e+17 0 
9860 0 91.65 1.29315e+18 5802.44 1283.72 619.223 185.356 138.214 1.05292 7.68856e+17 8.23061e+14 0 2.89035e+17 2.34431e+17 0 
13956 0 62.9217 8.878e+17 7679.86 1266.99 601.859 345.622 160.299 1.67701 5.25466e+17 9.17125e+14 0 1.95536e+17 1.65882e+17 0 
18052 0 87.0717 1.22855e+18 5875.95 1324.4 621.478 209.351 166.126 1.84656 7.30807e+17 1.29338e+15 0 2.73797e+17 2.2265e+17 0 
4868 0 58.7467 8.28893e+17 10296.1 1354.94 606.148 716.866 192.546 0.557368 4.98281e+17 8.70093e+14 0 1.7811e+17 1.51631e+17 0 
8964 0 78.9717 1.11426e+18 7569.53 1323.07 617.759 422.728 199.7 3.13439 6.7538e+17 1.10525e+15 0 2.40052e+17 1.97723e+17 0 
13060 0 52.7967 7.44941e+17 10651.8 1290.34 614.225 770.444 250.196 -0.946909 4.46663e+17 5.17353e+14 0 1.58333e+17 1.39427e+17 0 
17156 0 70.7617 9.9842e+17 8445.16 1310.82 633.056 542.196 241.29 2.87268 6.01822e+17 8.23061e+14 0 2.14584e+17 1.81191e+17 0 
193 0 24.5267 8.65155e+16 6461.42 217.1 157.943 6994.35 7.71886 1.03888 8.17652e+16 5.87901e+12 0 2.13408e+15 2.61028e+15 0 
5252 0 183.75 2.59264e+18 7576.86 1642.26 700.347 535.886 50.0764 2.70643 1.54954e+18 2.37512e+15 0 5.79952e+17 4.60773e+17 0 
84 1 34.4033 1.21354e+17 17880.1 797.481 321.832 5459.08 246.741 2.40474 9.90554e+16 5.29111e+13 0 1.13288e+16 1.09173e+16 0 
148 1 35.5217 1.25299e+17 17184.8 976.37 359.316 5389.37 304.5 -0.509911 1.00819e+17 7.05481e+13 0 1.25399e+16 1.18697e+16 0 
212 1 28.4817 1.00466e+17 12319.5 571.423 249.159 6295.9 172.999 -5.62325 8.82968e+16 1.1758e+13 0 5.8261e+15 6.33169e+15 0 
276 1 29.0383 1.0243e+17 12039.5 700.02 272.701 6257.54 210.714 0.272148 8.88965e+16 4.1153e+13 0 6.8608e+15 6.63152e+15 0 
92 1 25.8833 9.1301e+16 8523.14 419.743 209.554 6725 124.127 -1.36992 8.37406e+16 5.87901e+12 0 3.6685e+15 3.88602e+15 0 
156 1 26.1 9.20652e+16 7983.89 510.887 220.466 6751.32 142.155 -2.91035 8.42697e+16 2.9395e+13 0 3.90366e+15 3.86251e+15 0 
220 1 24.19 8.53279e+16 5730.96 323.892 181.578 7001.82 95.952 0.166316 8.04954e+16 0 0 2.29281e+15 2.53973e+15 0 
284 1 24.6 8.67741e+16 5226.7 342.998 189.291 7030.18 98.784 2.36545 8.18593e+16 2.3516e+13 0 2.44567e+15 2.44567e+15 0 
588 1 37.07 2.61522e+17 21205.5 1203.67 506.257 2646.17 274.015 2.00064 1.73972e+17 2.23402e+14 0 4.55623e+16 4.17645e+16 0 
1612 1 28.62 2.01909e+17 22226.5 1095.56 469.889 3088.78 312.922 3.23364 1.38227e+17 1.41096e+14 0 3.29695e+16 3.05708e+16 0 
2124 1 35.1083 2.47683e+17 20588.6 1208.23 517.725 2646.92 371.763 -4.84507 1.66211e+17 1.7637e+14 0 4.29873e+16 3.83076e+16 0 
716 1 24.6633 1.73995e+17 22500 950.066 405.202 4006.9 288.446 6.47453 1.26975e+17 1.41096e+14 0 2.47506e+16 2.21286e+16 0 
1228 1 27.4533 1.93678e+17 22187 1044.72 440.797 3754.18 351.374 -0.22673 1.39873e+17 9.40641e+13 0 2.77724e+16 2.59382e+16 0 
1740 1 19.8417 1.39979e+17 21496.3 859.394 365.707 4617.51 283.824 -0.15706 1.06692e+17 4.7032e+13 0 1.67552e+16 1.64847e+16 0 
2252 1 21.445 1.5129e+17 21421.9 1086.56 396.733 4302.89 340.991 -5.63986 1.12583e+17 4.7032e+13 0 2.02003e+16 1.84601e+16 0 
780 1 30.9183 2.18123e+17 20964 1199.54 483.42 3429.89 424.709 -7.08091 1.51796e+17 9.40641e+13 0 3.51212e+16 3.11117e+16 0 
1804 1 22.29 1.57252e+17 20816.4 1220.53 403.241 4189.68 392.559 -9.29483 1.1477e+17 9.40641e+13 0 2.17876e+16 2.06e+16 0 
5828 1 20.8433 2.94091e+17 19370.7 1107.45 536.935 2023.81 221.08 -11.2062 1.85212e+17 1.64612e+14 0 5.56154e+16 5.30992e+16 0 
9924 1 24.9733 3.52364e+17 17169.4 1247.49 563.476 1644.74 239.174 3.41166 2.1964e+17 3.5274e+14 0 6.88549e+16 6.35168e+16 0 
14020 1 19.4183 2.73985e+17 20212.2 1161.44 507.62 2183.94 234.725 0.600416 1.80227e+17 1.41096e+14 0 4.88663e+16 4.4751e+16 0 
18116 1 21.5967 3.04721e+17 18023 1253.18 506.369 1800.91 271.981 12.3348 1.91773e+17 2.58676e+14 0 5.93544e+16 5.33343e+16 0 
6340 1 29.6233 4.17974e+17 15741.4 1252.96 587.764 1417.25 254.044 2.17321 2.58418e+17 5.64385e+14 0 8.41874e+16 7.48045e+16 0 
10436 1 36.4633 5.14484e+17 13142.5 1278.11 601.164 1066.45 273.68 -5.0353 3.10929e+17 5.64385e+14 0 1.08621e+17 9.43698e+16 0 
14532 1 26.92 3.79831e+17 16122.2 1281.58 562.898 1515.31 280.832 2.17436 2.3596e+17 5.17353e+14 0 7.60038e+16 6.73499e+16 0 
18628 1 31.56 4.45299e+17 14371.4 1318.94 574.393 1253.41 310.828 -1.24993 2.77912e+17 4.93837e+14 0 8.92903e+16 7.76029e+16 0 
5196 1 24.105 3.40112e+17 18447.8 1323.11 570.177 1992.55 317.453 -1.01919 2.19216e+17 2.3516e+14 0 6.39401e+16 5.67207e+16 0 
9292 1 27.8167 3.92482e+17 16885.7 1431.89 571.351 1750.22 339.202 -5.60346 2.48071e+17 3.29224e+14 0 7.71561e+16 6.69266e+16 0 
13388 1 20.945 2.95526e+17 19840.7 1257.4 531.364 2383.35 332.019 -2.18794 1.93866e+17 1.64612e+14 0 5.37106e+16 4.77846e+16 0 
17484 1 23.7383 3.34939e+17 18084.2 1264.56 548.518 2039.63 377.508 -1.04118 2.14466e+17 1.1758e+14 0 6.36579e+16 5.66971e+16 0 
4748 1 33.5583 4.73495e+17 15021.6 1319.51 583.622 1452.83 374.324 0.267862 2.9816e+17 3.05708e+14 0 9.62511e+16 7.87787e+16 0 
8844 1 39.5633 5.58223e+17 12697.6 1308.83 599.302 1151.78 405.292 0.187255 3.47661e+17 4.93837e+14 0 1.1504e+17 9.50283e+16 0 
12940 1 26.51 3.74046e+17 16540.1 1370.61 603.587 1798.45 407.213 -5.86067 2.36477e+17 1.88128e+14 0 7.56981e+16 6.16825e+16 0 
17036 1 31.28 4.41349e+17 14861.8 1361.05 587.921 1548.74 455.378 -5.58332 2.78877e+17 3.29224e+14 0 8.75266e+16 7.46163e+16 0 
5772 1 21.8917 3.08883e+17 17736.4 1346.86 570.267 2062.6 435.571 26.6653 1.99957e+17 1.64612e+14 0 5.74967e+16 5.12649e+16 0 
9868 1 23.5283 3.31976e+17 16441.7 1346.97 580.356 1858.34 484.947 0.361639 2.13596e+17 1.41096e+14 0 6.33051e+16 5.49334e+16 0 
13964 1 18.08 2.55102e+17 19567.4 1407.93 537.452 2526.26 439.178 5.50979 1.68986e+17 1.41096e+14 0 4.59738e+16 4.00008e+16 0 
18060 1 19.4917 2.7502e+17 18432.1 1423.7 574.82 2344.67 489.126 1.7612 1.81943e+17 3.05708e+14 0 4.93131e+16 4.34576e+16 0 
5892 1 46 6.49042e+17 11008.6 1291.27 618.585 807.458 296.394 0.80361 3.94152e+17 4.7032e+14 0 1.36581e+17 1.17839e+17 0 
9988 1 59.475 8.39169e+17 8095.19 1272.43 606.975 482.188 302.998 3.79005 5.13755e+17 7.52513e+14 0 1.75641e+17 1.49021e+17 0 
14084 1 39.0733 5.5131e+17 11537.7 1368.78 600.945 905.689 337.554 1.52317 3.35056e+17 4.93837e+14 0 1.14829e+17 1.00931e+17 0 
18180 1 49.6517 7.00566e+17 10202.5 1359.67 595.343 792.158 346.683 -3.7033 4.27686e+17 3.05708e+14 0 1.47681e+17 1.24894e+17 0 
73 1 24.295 8.56983e+16 6420.63 207.379 152.912 6992.7 13.1639 -3.37947 8.09951e+16 0 0 1.96359e+15 2.73962e+15 0 
137 1 25.9317 9.14715e+16 9050.42 262.581 175.366 6759.2 24.3575 2.13913 8.44049e+16 0 0 3.0512e+15 4.01536e+15 0 
201 1 24.1133 8.50575e+16 5241.49 194.428 157.347 7089.55 16.8253 0.620545 8.13067e+16 5.87901e+12 0 1.69315e+15 2.05177e+15 0 
265 1 24.6217 8.68506e+16 7334.11 243.636 165.754 6909.06 25.5098 0.234747 8.13184e+16 1.1758e+13 0 2.45742e+15 3.06296e+15 0 
81 1 23.7817 8.38875e+16 4244.37 174.536 147.386 7168.44 14.6712 -0.000211038 8.0948e+16 0 0 1.27574e+15 1.66376e+15 0 
145 1 24.2567 8.55631e+16 5991.14 245.247 163.123 7020.99 27.7764 0.264692 8.11714e+16 0 0 1.81661e+15 2.575e+15 0 
209 1 23.3617 8.2406e+16 3326.82 172.33 148.915 7235.9 18.2141 -0.68286 8.00368e+16 0 0 1.02295e+15 1.34629e+15 0 
273 1 24.1233 8.50927e+16 4565.65 205.414 155.151 7135.63 25.7326 1.24701 8.18064e+16 2.3516e+13 0 1.40508e+15 1.85777e+15 0 
89 1 23.215 8.18887e+16 2519.71 164.616 144.988 7297.67 15.897 1.06821 8.01367e+16 0 0 7.81908e+14 9.70036e+14 0 
153 1 23.2133 8.18828e+16 3501.18 179.837 149.572 7219.59 20.2513 -0.303438 7.93196e+16 0 0 1.16404e+15 1.3992e+15 0 
217 1 22.8483 8.05953e+16 2089.61 157.869 142.962 7330.73 11.9439 1.78688 7.91608e+16 0 0 6.46691e+14 7.87787e+14 0 
281 1 23.2183 8.19004e+16 2692.86 181.189 146.679 7281.32 19.7934 -0.901006 7.99898e+16 0 0 7.99545e+14 1.11113e+15 0 
74 1 27.1167 9.56514e+16 12884.2 367.49 208.764 6363.61 43.2162 1.87921 8.47106e+16 1.7637e+13 0 4.97952e+15 5.94368e+15 0 
138 1 31.2533 1.10243e+17 17488.4 520.21 247.941 5748.1 73.8968 3.73294 9.20829e+16 5.29111e+13 0 8.78324e+15 9.3241e+15 0 
202 1 26.48 9.34056e+16 10639.2 356.071 189.189 6587.28 46.4933 1.04764 8.47518e+16 2.9395e+13 0 3.96245e+15 4.66205e+15 0 
266 1 28.4783 1.00455e+17 14303.4 426.063 216.962 6183.11 77.7085 -2.66403 8.81381e+16 1.1758e+13 0 5.78494e+15 6.51982e+15 0 
82 1 25.285 8.91904e+16 8128.84 275.732 173.265 6823.6 45.1587 0.44385 8.2847e+16 1.1758e+13 0 2.95714e+15 3.37455e+15 0 
146 1 26.8733 9.47931e+16 11285.9 363.494 200.478 6508.35 75.855 0.315278 8.54866e+16 2.9395e+13 0 4.55035e+15 4.72672e+15 0 
210 1 24.3483 8.58864e+16 6506.11 255.112 167.604 6966.63 42.37 -0.238787 8.11597e+16 1.1758e+13 0 2.22226e+15 2.4927e+15 0 
274 1 25.3117 8.92845e+16 8173.81 312.649 182.952 6816.52 65.5967 -0.878179 8.29293e+16 1.1758e+13 0 2.99829e+15 3.34515e+15 0 
90 1 23.9867 8.46107e+16 4314.98 211.226 154.017 7155.95 32.031 2.00412 8.14478e+16 5.87901e+12 0 1.35217e+15 1.80485e+15 0 
154 1 24.3583 8.59217e+16 5548.08 269.661 172 7044.06 49.0738 1.24927 8.14889e+16 0 0 1.8754e+15 2.55737e+15 0 
218 1 23.325 8.22767e+16 2974.13 210.347 149.09 7255.75 23.5027 1.18051 7.9931e+16 0 0 9.81794e+14 1.36393e+15 0 
282 1 23.675 8.35113e+16 4368.25 242.788 157.021 7146.35 45.4759 -0.801973 8.01838e+16 5.87901e+12 0 1.57557e+15 1.74606e+15 0 
83 1 28.68 1.01166e+17 13916 460.774 227.664 6195.59 110.345 0.896749 8.8626e+16 3.5274e+13 0 6.36696e+15 6.13768e+15 0 
211 1 26.3833 9.30647e+16 10056 357.571 197.628 6616.05 90.0283 -3.17279 8.41815e+16 2.3516e+13 0 4.19173e+15 4.66793e+15 0 
91 1 24.8633 8.7703e+16 6954.2 296.76 180.813 6910.19 71.4665 -2.15717 8.21062e+16 0 0 2.7455e+15 2.85132e+15 0 
219 1 24.0333 8.47753e+16 4495 255.935 160.779 7130.25 51.2074 3.68032 8.11656e+16 1.1758e+13 0 1.48739e+15 2.11056e+15 0 
75 1 37.21 1.31255e+17 21719.1 673.988 318.783 4891.36 125.539 -1.24907 1.02212e+17 4.7032e+13 0 1.46858e+16 1.43095e+16 0 
203 1 32.5833 1.14935e+17 18194.6 579.545 262.732 5584.45 129.363 3.83263 9.51576e+16 2.9395e+13 0 9.36526e+15 1.03823e+16 0 
1731 1 17.765 1.25329e+17 22824.8 719.054 322.922 4552.88 90.147 0.981638 9.397e+16 1.41096e+14 0 1.47563e+16 1.64612e+16 0 
2243 1 21.245 1.49879e+17 23814.9 830.062 375.762 3981.97 122.991 4.36819 1.08809e+17 7.05481e+13 0 2.01532e+16 2.0847e+16 0 
267 1 38.5867 1.36111e+17 21393.2 816.876 328.528 4807.04 213.436 -0.368444 1.05693e+17 1.05822e+14 0 1.56382e+16 1.4674e+16 0 
147 1 31.075 1.09614e+17 16712.6 598.131 273.87 5772.18 173.912 -0.00889146 9.22769e+16 1.7637e+13 0 8.67153e+15 8.64802e+15 0 
275 1 27.4267 9.67449e+16 11435.5 506.416 233.916 6438.64 126.774 -3.56879 8.61216e+16 2.9395e+13 0 5.42044e+15 5.17353e+15 0 
155 1 25.74 9.07954e+16 7654.77 394.957 187.358 6834.5 92.4246 1.23826 8.40169e+16 2.3516e+13 0 3.22757e+15 3.5274e+15 0 
283 1 24.4167 8.61274e+16 5034.31 288.85 169.868 7075.5 66.8159 -1.14209 8.20298e+16 1.1758e+13 0 1.89892e+15 2.18699e+15 0 
651 1 25.1167 1.77193e+17 23227.1 914.376 407.785 4010.86 165.518 1.19034 1.28233e+17 5.87901e+13 0 2.43626e+16 2.4539e+16 0 
1163 1 30.0767 2.12185e+17 22942.3 1099.56 421.307 3382.35 218.562 -2.44883 1.46681e+17 1.99886e+14 0 3.39924e+16 3.13116e+16 0 
1675 1 20.8367 1.46999e+17 22899.4 873.21 377.695 4223.93 198.897 11.8204 1.08197e+17 1.05822e+14 0 1.9483e+16 1.92126e+16 0 
2187 1 24.3783 1.71984e+17 23208.1 959.981 423.272 3683.48 242.866 1.69001 1.22636e+17 2.11644e+14 0 2.49858e+16 2.4151e+16 0 
1795 1 25.2633 1.78228e+17 23398.3 966.987 430.142 3267.24 157.661 -0.991835 1.21884e+17 1.7637e+14 0 2.80076e+16 2.81604e+16 0 
2307 1 32.3083 2.27929e+17 21596.3 1071.17 486.913 2573.23 201.7 2.08574 1.4928e+17 1.7637e+14 0 3.98244e+16 3.86486e+16 0 
257 1 25.9283 9.14597e+16 9909.9 280.809 177.844 6678.61 15.4907 -0.436443 8.33173e+16 0 0 3.50977e+15 4.63266e+15 0 
194 1 28.3383 9.99607e+16 14588.8 399.599 209.91 6170.68 28.5154 1.68947 8.66565e+16 2.3516e+13 0 6.31405e+15 6.96662e+15 0 
258 1 33.195 1.17092e+17 19299.5 560.644 260.52 5476.17 53.0025 0.276368 9.56162e+16 1.7637e+13 0 1.02765e+16 1.11819e+16 0 
1292 2 30.785 2.17182e+17 19844.5 1372.27 517.19 3393.13 485.856 -6.40586 1.50279e+17 9.40641e+13 0 3.58149e+16 3.09941e+16 0 
2316 2 22.4233 1.58192e+17 19964.8 1261.52 466.397 4311.12 435.798 9.41164 1.16863e+17 8.23061e+13 0 2.15289e+16 1.97182e+16 0 
13444 2 164.735 2.32435e+18 5213.79 1386.71 656.006 211.204 119.325 -2.85688 1.40868e+18 1.43448e+15 0 5.1533e+17 3.98902e+17 0 
6276 2 142.453 2.00996e+18 3946.71 1220.11 620.055 51.1595 152.149 -1.4128 1.22904e+18 1.88128e+15 0 4.39985e+17 3.39054e+17 0 
14468 2 126.128 1.77962e+18 4262.93 1200.82 601.205 86.5927 154.25 2.53806 1.0935e+18 9.87673e+14 0 3.823e+17 3.02839e+17 0 
5380 2 113.73 1.60469e+18 5353.22 1262.76 617.756 232.939 182.097 0.742263 9.78713e+17 1.03471e+15 0 3.46509e+17 2.7843e+17 0 
9476 2 185.888 2.62281e+18 3541.78 1123.7 593.924 101.871 148.639 -2.5096 1.64786e+18 1.78722e+15 0 5.61045e+17 4.12118e+17 0 
13572 2 99.9483 1.41023e+18 6048.6 1304.7 621.769 305.529 233.503 -0.342926 8.5991e+17 1.10525e+15 0 3.03756e+17 2.4546e+17 0 
17668 2 157.167 2.21756e+18 4084.36 1170.54 602.418 150.777 200.057 -0.617084 1.3992e+18 1.99886e+15 0 4.66628e+17 3.4973e+17 0 
6404 2 82.5183 1.1643e+18 6683.4 1281.46 616.208 370.93 293.892 0.479025 7.1872e+17 1.19932e+15 0 2.47812e+17 1.9657e+17 0 
10500 2 121.772 1.71815e+18 4700.8 1169.46 609.82 210.793 270.645 4.36375 1.08583e+18 1.45799e+15 0 3.58572e+17 2.72292e+17 0 
14596 2 64.425 9.09012e+17 8084.81 1277.12 611.211 545.866 367.097 0.481513 5.72145e+17 5.87901e+14 0 1.86129e+17 1.5015e+17 0 
18692 2 86.67 1.22288e+18 6208.34 1250.64 628.8 405.993 351.22 -1.65735 7.68998e+17 1.74019e+15 0 2.59782e+17 1.92361e+17 0 
5260 2 48.7533 6.87891e+17 10927.4 1383.11 619.821 978.705 424.731 5.27508 4.3427e+17 5.40869e+14 0 1.43542e+17 1.09538e+17 0 
9356 2 57.7367 8.14642e+17 9372.19 1477.09 644.77 871.265 457.926 1.3076 5.13472e+17 5.40869e+14 0 1.69715e+17 1.30914e+17 0 
13452 2 35.79 5.04983e+17 14060.5 1502.33 625.948 1519.86 478.529 -0.978508 3.2358e+17 3.29224e+14 0 1.00084e+17 8.09892e+16 0 
17548 2 39.4783 5.57024e+17 12226.7 1440.69 617.692 1354.42 517.077 8.30795 3.52787e+17 3.5274e+14 0 1.11842e+17 9.20417e+16 0 
6284 2 25.9483 3.66121e+17 15611.4 1464.9 594.235 1869.29 516.14 9.14943 2.3342e+17 2.11644e+14 0 7.08773e+16 6.1612e+16 0 
10380 2 27.84 3.92812e+17 15244.7 1592.66 603.343 1932.14 543.807 7.58913 2.54396e+17 2.11644e+14 0 7.50867e+16 6.3117e+16 0 
14476 2 19.98 2.8191e+17 17891.8 1281.39 590.83 2397.87 519.897 1.1171 1.86529e+17 2.58676e+14 0 5.10298e+16 4.40925e+16 0 
18572 2 20.4217 2.88142e+17 17208 1558.25 571.164 2464.94 546.472 -19.5528 1.88787e+17 1.64612e+14 0 5.45807e+16 4.46099e+16 0 
9348 2 486.55 6.86503e+18 2819.91 1233.79 617.042 74.7751 53.8528 -1.46193 4.50235e+18 5.97307e+15 0 1.37178e+18 9.84922e+17 0 
17540 2 349.975 4.93801e+18 2566.82 1118.51 595.35 28.291 107.141 -0.860258 3.17904e+18 4.04476e+15 0 1.02894e+18 7.25987e+17 0 
8 3 8.92333 1.57381e+16 8049.94 3476.81 1055.61 4799.42 -176.628 -1.07674 9.54457e+15 5.87901e+12 0 3.32752e+15 2.86014e+15 0 
7 3 8.09 1.42683e+16 9022.82 3666.89 1102.2 4426.71 -335.959 -6.48599 8.74502e+15 8.81851e+12 0 2.92481e+15 2.5897e+15 0 
80 3 25.3817 8.95314e+16 5071.64 1455.35 459.768 6464.24 20.9649 -7.46343 7.06186e+16 2.9395e+13 0 9.77091e+15 9.11246e+15 0 
144 3 23.5967 8.3235e+16 4857.16 1442.36 459.415 6512.16 11.6545 -5.3805 6.56979e+16 4.1153e+13 0 9.28883e+15 8.20709e+15 0 
208 3 28.59 1.00848e+17 4669.85 1312.67 422.415 6601.99 116.418 -3.68979 8.1677e+16 1.1758e+13 0 1.01178e+16 9.04191e+15 0 
272 3 28.3567 1.00025e+17 4372.81 1283.88 398.17 6668.3 103.482 -4.62067 8.23061e+16 6.46691e+13 0 9.27119e+15 8.38346e+15 0 
88 3 27.6533 9.75445e+16 4096.14 1109.14 342.64 6820.01 142.28 3.72047 8.45401e+16 2.3516e+13 0 7.06069e+15 5.92016e+15 0 
152 3 27.1117 9.56338e+16 3941.05 1094.85 340.795 6836.08 133.959 -5.15573 8.32761e+16 2.9395e+13 0 6.77262e+15 5.55566e+15 0 
216 3 26.1017 9.20711e+16 3520.39 809.983 284.036 6975.17 138.953 1.98613 8.31997e+16 2.9395e+13 0 4.61502e+15 4.22701e+15 0 
280 3 26.055 9.19065e+16 3182.85 781.463 284.877 7018.91 128.748 2.26797 8.33114e+16 5.87901e+12 0 4.64441e+15 3.94481e+15 0 
96 3 24.7833 8.74208e+16 2875.33 616.25 245.617 7118.42 125.685 1.76951 8.16418e+16 5.87901e+12 0 3.15703e+15 2.61616e+15 0 
160 3 25.5533 9.01369e+16 2752.85 636.867 236.553 7121.06 121.603 -2.48847 8.4252e+16 1.1758e+13 0 3.16878e+15 2.70434e+15 0 
224 3 24.2133 8.54102e+16 2485.93 543.098 210.154 7194.2 109.374 1.25655 8.13125e+16 1.7637e+13 0 2.32221e+15 1.75782e+15 0 
288 3 24.0367 8.4787e+16 2197.81 501.977 211.873 7217.24 104.549 0.997251 8.06952e+16 5.87901e+12 0 2.28693e+15 1.79898e+15 0 
79 3 28.16 9.93317e+16 5888.86 1926.57 540.249 6210.88 41.9104 6.44867 7.33582e+16 4.7032e+13 0 1.36746e+16 1.22518e+16 0 
143 3 26.3833 9.30647e+16 5497.39 1627.43 482.533 6334.78 33.7785 7.7371 7.11125e+16 2.9395e+13 0 1.1611e+16 1.03118e+16 0 
207 3 30.79 1.08609e+17 5495.29 1526.1 452.039 6467.95 162.125 0.577622 8.70328e+16 4.1153e+13 0 1.14229e+16 1.01119e+16 0 
271 3 29.7017 1.0477e+17 5038.8 1394.97 436.858 6548.73 130.926 7.70257 8.45107e+16 4.7032e+13 0 1.06586e+16 9.55338e+15 0 
87 3 28.4217 1.00255e+17 5112.58 1120.84 335.76 6707.28 179.246 4.52624 8.59452e+16 3.5274e+13 0 7.73677e+15 6.53745e+15 0 
151 3 27.77 9.7956e+16 4495.02 1113.68 350.1 6777.19 161.07 -1.08174 8.43637e+16 3.5274e+13 0 7.28409e+15 6.2729e+15 0 
215 3 26.5017 9.34821e+16 4460.68 837.461 280.237 6903.03 167.846 1.67668 8.45048e+16 4.1153e+13 0 4.83842e+15 4.09179e+15 5.87901e+12 
279 3 26.3483 9.29412e+16 3798.37 872.153 274.217 6958.84 153.652 -1.80232 8.39757e+16 1.7637e+13 0 4.75612e+15 4.19173e+15 0 
95 3 25.3483 8.94138e+16 3625.51 617.438 229.867 7057.8 134.711 7.45461 8.33408e+16 0 0 3.40394e+15 2.66907e+15 0 
159 3 25.5067 8.99723e+16 3366.43 625.344 248.748 7070.14 142.269 3.3256 8.36406e+16 2.9395e+13 0 3.53328e+15 2.76901e+15 0 
223 3 24.515 8.64743e+16 3052.58 516.564 206.374 7158.99 119.295 -5.00622 8.21591e+16 1.1758e+13 0 2.32221e+15 1.98123e+15 0 
287 3 24.03 8.47635e+16 2595.12 484.295 197.761 7197.49 115.745 -1.4909 8.06012e+16 0 0 2.11644e+15 2.04589e+15 0 
142 3 30.4633 1.07456e+17 6407.53 1891.73 575.341 6086.48 70.7034 -9.17545 7.75911e+16 4.7032e+13 0 1.54559e+16 1.43624e+16 0 
270 3 31.5867 1.11419e+17 6348.02 1503.3 460.968 6349 189.207 4.60916 8.82792e+16 2.3516e+13 0 1.2099e+16 1.10173e+16 0 
150 3 28.8167 1.01648e+17 5869.77 1128.31 368.198 6644.04 207.446 -2.60638 8.69505e+16 3.5274e+13 0 7.94254e+15 6.7197e+15 0 
278 3 27.0767 9.55103e+16 5276.08 853.301 289.658 6841.02 186.907 2.54427 8.56571e+16 5.87901e+12 0 5.29698e+15 4.55035e+15 0 
158 3 25.4417 8.9743e+16 4547.22 661.124 235.814 6985.96 155.836 5.32868 8.3041e+16 1.1758e+13 0 3.69202e+15 2.99829e+15 0 
286 3 24.3233 8.57982e+16 3365.09 472.488 203.73 7139.83 119.274 0.717375 8.11009e+16 2.3516e+13 0 2.56325e+15 2.11056e+15 0 
94 3 25.6367 9.04309e+16 5282.92 601.173 233.637 6936.42 166.496 -0.942692 8.34525e+16 5.87901e+12 0 3.6391e+15 3.3334e+15 0 
222 3 24.3017 8.57218e+16 4028.94 452.731 204.591 7090.69 123.918 0.561299 8.07775e+16 5.87901e+12 0 2.52209e+15 2.41627e+15 0 
6 3 6.32 1.20065e+16 9555.21 3596.65 1032.07 3741.73 -594.786 -21.8966 6.8803e+15 0 0 2.72616e+15 2.40003e+15 0 
206 3 33.6133 1.18568e+17 8145.04 1718.97 511.572 6109.74 258.598 3.01451 9.33469e+16 4.1153e+13 0 1.38686e+16 1.13112e+16 0 
86 3 29.8717 1.05369e+17 7862.66 1277.42 386.308 6409.49 261.126 1.87932 8.87377e+16 1.7637e+13 0 9.14773e+15 7.46634e+15 0 
214 3 27.9167 9.84734e+16 6684.48 850.845 291.727 6702.93 210.662 -2.99446 8.73914e+16 3.5274e+13 0 6.12005e+15 4.92661e+15 0 
1165 3 18.2017 1.28409e+17 8042.6 2383.66 698.289 5508.81 60.2026 -3.55663 8.4787e+16 3.5274e+13 0 2.30575e+16 2.05295e+16 0 
2189 3 19.8767 1.40226e+17 9143.16 2389.11 635.491 5515.27 236.778 4.54376 9.69801e+16 8.23061e+13 0 2.33514e+16 1.98123e+16 0 
1293 3 19.07 1.34535e+17 10251.5 1881.95 531.139 5703.07 306.526 3.6825 1.01989e+17 4.7032e+13 0 1.79075e+16 1.45917e+16 0 
2317 3 17.0967 1.20614e+17 10506.3 1550.12 479.178 5899.08 333.976 1.11672 9.49224e+16 4.7032e+13 0 1.43683e+16 1.12759e+16 0 
590 3 17.02 1.20073e+17 7478.86 2168.6 645.924 5794.62 18.803 -6.62719 8.38229e+16 1.05822e+14 0 1.91773e+16 1.69668e+16 0 
1102 3 15.1117 1.0661e+17 6972.38 2050.3 611.818 5904.45 7.14972 4.78468 7.43224e+16 2.3516e+13 0 1.72843e+16 1.49797e+16 0 
1614 3 17.9033 1.26305e+17 7934.63 2161.27 678.557 5746.88 191.61 1.89492 8.8726e+16 4.7032e+13 0 2.03766e+16 1.71549e+16 0 
2126 3 17.0983 1.20625e+17 7127.13 2069.47 618.244 5902.24 152.188 -0.899232 8.52926e+16 3.5274e+13 0 1.85894e+16 1.67081e+16 0 
5 3 166.785 2.85236e+18 2899.83 1013.37 577.177 107.367 188.647 0.491662 1.88946e+18 2.62231e+15 0 5.64965e+17 3.95313e+17 0 
5 3 2.22833 1.58144e+16 8636.2 3074.06 952.149 2450.8 -632.912 43.8033 8.49269e+15 1.18283e+13 0 4.21086e+15 3.099e+15 0 
85 3 34.29 1.20955e+17 14709.4 1211.1 388.481 5621.5 338.101 0.290232 9.77855e+16 5.29111e+13 0 1.24635e+16 1.06528e+16 0 
149 3 31.7883 1.1213e+17 10769.1 1243.6 373.549 6115.66 300.222 0.242531 9.29177e+16 2.9395e+13 0 1.03823e+16 8.80087e+15 0 
213 3 29.02 1.02365e+17 10496.8 785.337 284.674 6384.43 225.926 -0.602441 8.95137e+16 3.5274e+13 0 6.74322e+15 6.07301e+15 0 
277 3 27.9233 9.84969e+16 8467.75 852.664 298.195 6544.71 230.753 -1.86062 8.65625e+16 4.1153e+13 0 6.20823e+15 5.685e+15 0 
93 3 26.0233 9.17948e+16 7160.98 504.932 231.086 6807.56 158.913 1.43285 8.43814e+16 2.3516e+13 0 3.78608e+15 3.60383e+15 0 
157 3 25.795 9.09894e+16 6451.51 618.457 237.183 6839.7 168.768 -0.225323 8.33702e+16 1.1758e+13 0 4.08591e+15 3.52152e+15 0 
221 3 24.9583 8.80381e+16 5381.58 405.93 195.595 7006 121.354 4.4804 8.27646e+16 1.7637e+13 0 2.67495e+15 2.58088e+15 0 
285 3 24.5283 8.65213e+16 4471.39 475.427 198.566 7064.1 118.388 -3.04546 8.17829e+16 5.87901e+12 0 2.59852e+15 2.13408e+15 0 
2125 3 31 2.18699e+17 15512.5 2076.13 676.697 3744.28 510.748 -8.15139 1.47845e+17 1.41096e+14 0 3.93776e+16 3.13351e+16 0 
653 3 21.365 1.50726e+17 9709.31 2435.34 754.836 5107.36 117.191 8.00702 9.85086e+16 8.23061e+13 0 2.7843e+16 2.42921e+16 0 
1677 3 22.18 1.56476e+17 12089.6 2460.54 699.923 4905.34 357.893 3.34668 1.07727e+17 5.87901e+13 0 2.7161e+16 2.15289e+16 0 
717 3 28.9617 2.04319e+17 18524.9 1549.13 555.69 3776.17 512.877 -0.905798 1.43248e+17 8.23061e+13 0 3.30635e+16 2.79253e+16 0 
1229 3 24.78 1.74818e+17 16306.2 1787.24 556.697 4490.99 492.245 3.1811 1.25246e+17 1.29338e+14 0 2.62321e+16 2.32103e+16 0 
1741 3 22.26 1.5704e+17 18413.7 1394.98 465.59 4542.82 447.617 9.0855 1.16052e+17 1.1758e+14 0 2.15172e+16 1.93537e+16 0 
2253 3 19.4033 1.36887e+17 15960.1 1498.63 518.123 5045.87 429.436 1.70924 1.03177e+17 1.05822e+14 0 1.77899e+16 1.58145e+16 0 
781 3 21.5383 1.51949e+17 13182 1902.36 569.538 5225.51 403.911 -1.13214 1.13335e+17 1.05822e+14 0 2.1235e+16 1.72725e+16 0 
1805 3 17.9617 1.26716e+17 13197.2 1590.16 474.279 5468.98 398.733 10.5979 9.68507e+16 7.05481e+13 0 1.59556e+16 1.38392e+16 0 
4685 3 69.1633 9.75868e+17 7927.73 1321.13 624.513 787.336 456.322 2.95741 6.27008e+17 4.7032e+14 0 1.97746e+17 1.50644e+17 0 
8781 3 67.2417 9.48754e+17 7899.62 1438.72 645.423 1007.01 450.384 3.96192 6.19412e+17 5.40869e+14 0 1.89116e+17 1.39685e+17 0 
12877 3 40.1967 5.67159e+17 11508.4 1626.31 640.573 1423.33 546.354 1.7855 3.6304e+17 3.76256e+14 0 1.14147e+17 8.95961e+16 0 
16973 3 35.3183 4.98328e+17 12213.6 1732.6 677.277 1846.94 559.2 4.66003 3.22358e+17 2.11644e+14 0 9.73328e+16 7.84259e+16 0 