ITEM: TIMESTEP
18000
ITEM: NUMBER OF CELLS
246
ITEM: BOX BOUNDS oo ao pp
-10 10
0 10
-0.5 0.5
ITEM: CELLS id proc f_avg_n f_avg_nrho f_avg_temp_tra f_avg_temp_rot f_avg_temp_vib f_avg_vel[1] f_avg_vel[2] f_avg_vel[3] f_avg_nrho_CO2 f_avg_nrho_O2 f_avg_nrho_C2 f_avg_nrho_CO f_avg_nrho_O f_avg_nrho_C 
65 0 24.43 8.61745e+16 6253.27 192.891 156.378 7009.58 12.1717 0.174569 8.14478e+16 1.41096e+13 0 2.08117e+15 2.63144e+15 0 
129 0 26.752 9.43651e+16 9861.1 310.359 179.111 6681.25 17.8293 -0.220112 8.58429e+16 7.05481e+12 0 3.88014e+15 4.63501e+15 0 
66 0 29.5 1.04058e+17 13857.8 381.61 212.549 6251.26 26.9507 -4.08433 9.08941e+16 1.41096e+13 0 5.84138e+15 7.30878e+15 0 
130 0 34.8 1.22754e+17 18873.7 539.549 266.96 5531.78 29.4964 -0.104464 9.99878e+16 3.5274e+13 0 1.09208e+16 1.18097e+16 0 
579 0 30.114 2.12448e+17 16391.3 622.411 254.781 5836.65 45.8707 -13.4189 1.751e+17 3.5274e+14 0 1.70303e+16 1.99651e+16 0 
1091 0 32.468 2.29055e+17 19423.3 722.987 297.174 5342.08 67.9542 19.7566 1.81958e+17 2.82192e+13 0 2.17288e+16 2.53409e+16 0 
1603 0 17.73 1.25082e+17 23986.3 700.487 363.448 4044.65 43.3804 -5.34148 9.08377e+16 2.82192e+13 0 1.64377e+16 1.77781e+16 0 
2115 0 21.942 1.54797e+17 23867.8 844.875 419.463 3345.27 62.3781 -2.55689 1.05864e+17 2.82192e+13 0 2.44237e+16 2.44802e+16 0 
707 0 21.844 1.54105e+17 21499.4 718.127 303.663 4927.57 68.9392 -1.66003 1.18013e+17 4.23288e+13 0 1.72561e+16 1.8794e+16 0 
1219 0 24.404 1.72166e+17 23355.9 826.499 356.543 4225.03 89.1045 3.07202 1.26027e+17 2.82192e+13 0 2.27306e+16 2.33796e+16 0 
643 0 39.032 2.75363e+17 21548.3 876.278 357.284 4750.73 59.8487 -12.5044 2.06029e+17 4.23288e+13 0 3.52458e+16 3.40465e+16 0 
1667 0 27.838 1.96392e+17 22064.3 1033.04 448.072 2581.4 66.015 -4.82181 1.27071e+17 8.46577e+13 0 3.49918e+16 3.4244e+16 0 
2179 0 37.228 2.62636e+17 19140.6 1146.14 515.503 1891.56 88.8377 4.21435 1.62712e+17 1.83425e+14 0 5.11756e+16 4.85653e+16 0 
771 0 29.79 2.10163e+17 23698.3 927.677 406.135 3544.49 107.478 -4.6118 1.47742e+17 1.12877e+14 0 2.99829e+16 3.23251e+16 0 
1283 0 38.308 2.70256e+17 21963.9 1148.12 491.399 2773.92 128.874 -4.50351 1.77584e+17 1.69315e+14 0 4.67452e+16 4.57575e+16 0 
5251 0 28.686 4.04748e+17 18391.1 992.237 366.711 5300.52 57.7163 7.66611 3.09142e+17 1.41096e+14 0 4.67593e+16 4.87064e+16 0 
9347 0 30.804 4.34633e+17 21100.9 974.988 404.302 4683.07 53.3851 21.139 3.18398e+17 1.97535e+14 0 5.85831e+16 5.74544e+16 0 
13443 0 20.034 2.82672e+17 23013.6 1041.79 471.788 3411.12 49.8345 -8.25913 1.91157e+17 1.41096e+14 0 4.61667e+16 4.52072e+16 0 
17539 0 22.71 3.20429e+17 22195.7 1166.71 499.936 2940.1 71.4248 20.4341 2.11193e+17 1.41096e+14 0 5.70028e+16 5.20927e+16 0 
4676 0 34.034 4.80207e+17 21889.4 1226.1 466.191 4146.41 44.6703 0.858572 3.4086e+17 3.10412e+14 0 7.19026e+16 6.71335e+16 0 
8772 0 38.608 5.44744e+17 22016.8 1433.19 485.174 3652.16 29.7725 18.8068 3.66737e+17 2.25754e+14 0 9.43369e+16 8.34443e+16 0 
12868 0 27.214 3.83979e+17 21191.9 1276.82 517.939 2657.72 74.2181 9.83289 2.472e+17 1.69315e+14 0 7.00683e+16 6.65409e+16 0 
16964 0 31.926 4.50464e+17 19064.5 1318.01 559.612 2038.91 78.0487 2.18779 2.83801e+17 3.38631e+14 0 8.4827e+16 8.14971e+16 0 
5188 0 46.236 6.52372e+17 21168.2 1634.27 549.653 3146.63 49.4802 7.27736 4.16488e+17 4.51508e+14 0 1.24334e+17 1.11099e+17 0 
9284 0 57.542 8.11895e+17 19796.2 1569.64 617.964 2595.18 37.5847 -4.36197 5.0377e+17 9.03015e+14 0 1.5831e+17 1.48913e+17 0 
13380 0 39.124 5.52025e+17 16879.3 1433.12 593.536 1672.94 87.8043 -6.11548 3.36768e+17 4.51508e+14 0 1.12369e+17 1.02436e+17 0 
17476 0 49.92 7.04352e+17 14331.1 1424.44 630.638 1258.15 87.8974 -0.961155 4.1931e+17 6.20823e+14 0 1.49957e+17 1.34465e+17 0 
5700 0 24.298 3.42835e+17 16772.2 1169.62 535.283 1482.62 90.0456 -13.3432 2.10741e+17 1.41096e+14 0 6.87985e+16 6.31546e+16 0 
9796 0 30.066 4.2422e+17 14586.1 1379.04 571.35 1178.62 102.834 11.137 2.55384e+17 2.82192e+14 0 8.88341e+16 7.97193e+16 0 
13892 0 23.968 3.38179e+17 16945.2 1151.78 522.082 1496.23 115.311 -1.00672 2.03743e+17 3.95069e+14 0 6.8742e+16 6.52993e+16 0 
17988 0 28.836 4.06865e+17 14095.9 1309.65 575.07 1086.62 139.338 1.35262 2.44379e+17 3.10412e+14 0 8.46012e+16 7.75747e+16 0 
6212 0 37.246 5.25527e+17 12461.1 1269.44 594.454 870.216 98.5946 8.20686 3.14927e+17 4.23288e+14 0 1.1014e+17 1.00037e+17 0 
10308 0 48.554 6.85078e+17 9501.48 1329.97 619.594 520.206 112.265 0.582425 4.07711e+17 4.79727e+14 0 1.50465e+17 1.26422e+17 0 
14404 0 37.132 5.23918e+17 11644.2 1319.75 586.719 775.812 140.347 4.23455 3.09875e+17 4.51508e+14 0 1.11522e+17 1.02069e+17 0 
18500 0 46.922 6.62051e+17 9677.21 1317.64 600.346 544.094 145.04 11.963 3.92163e+17 5.64385e+14 0 1.43833e+17 1.25491e+17 0 
4804 0 25.408 3.58497e+17 20029.8 1194.02 536.734 2190.32 127.977 10.836 2.30354e+17 2.82192e+14 0 6.60612e+16 6.18001e+16 0 
8900 0 30.372 4.28537e+17 18076 1302.87 547.77 1783.07 153.809 -4.05657 2.66446e+17 3.10412e+14 0 8.20897e+16 7.96911e+16 0 
12996 0 23.006 3.24606e+17 19473.2 1292.66 526.64 2061.96 195.135 11.4879 2.06339e+17 2.82192e+14 0 6.06996e+16 5.7285e+16 0 
17092 0 27.75 3.91542e+17 17747.9 1202.19 555.548 1760.45 200.363 8.01586 2.41895e+17 5.64385e+13 0 8.05659e+16 6.90242e+16 0 
5316 0 35.702 5.03741e+17 14852.8 1330.53 582.396 1273.14 185.844 -4.98916 3.06771e+17 3.10412e+14 0 1.05314e+17 9.13456e+16 0 
9412 0 46.326 6.53642e+17 13023.2 1307.52 601.302 1053.86 188.401 -1.1154 3.9284e+17 7.05481e+14 0 1.37399e+17 1.22697e+17 0 
13508 0 33.026 4.65984e+17 15443.1 1360.29 572.569 1384.18 228.775 2.7728 2.84422e+17 2.53973e+14 0 9.61429e+16 8.51656e+16 0 
17604 0 40.878 5.76773e+17 13427.1 1280.61 589.881 1095.12 231.354 -0.140562 3.50455e+17 3.38631e+14 0 1.1742e+17 1.08559e+17 0 
4740 0 74.372 1.04936e+18 16340.2 1704.62 650.722 1849.88 44.8498 10.5518 6.24294e+17 5.07946e+14 0 2.17288e+17 2.0727e+17 0 
8836 0 103.806 1.46466e+18 12470.1 1771.53 697.251 1172.62 38.0033 -1.55485 8.5888e+17 1.38274e+15 0 3.21925e+17 2.82474e+17 0 
12932 0 68.944 9.72773e+17 11182.9 1475.34 643.676 845.616 83.4914 -0.435932 5.7127e+17 6.77262e+14 0 2.14099e+17 1.86727e+17 0 
17028 0 100.298 1.41517e+18 8160.94 1463.79 667.377 497.808 96.1303 1.97852 8.28827e+17 1.6085e+15 0 3.22151e+17 2.6258e+17 0 
5764 0 65.618 9.25845e+17 7825.68 1327.16 633.666 360.226 117.784 -2.47993 5.4497e+17 8.18358e+14 0 2.09217e+17 1.70839e+17 0 
9860 0 91.266 1.28773e+18 5875.23 1266.95 617.901 191.493 139.711 1.17539 7.67619e+17 8.74796e+14 0 2.86087e+17 2.33147e+17 0 
13956 0 62.832 8.86535e+17 7622 1246.71 598.721 333.83 159.822 1.18037 5.26599e+17 6.77262e+14 0 1.91919e+17 1.6734e+17 0 
18052 0 87.26 1.2312e+18 6011.83 1335.27 623.668 225.605 163.738 2.92639 7.33982e+17 1.21343e+15 0 2.72598e+17 2.23412e+17 0 
4868 0 58.91 8.31197e+17 10522.8 1346.73 603.024 745.683 191.583 0.795178 4.99367e+17 7.90138e+14 0 1.7891e+17 1.5213e+17 0 
8964 0 79.028 1.11505e+18 7625.85 1329.75 621.265 433.762 198.494 2.77196 6.75258e+17 1.24165e+15 0 2.39553e+17 1.99002e+17 0 
13060 0 52.884 7.46173e+17 10388.2 1279.01 615.728 731.845 252.07 0.129917 4.48742e+17 5.07946e+14 0 1.5783e+17 1.39093e+17 0 
17156 0 70.868 9.9992e+17 8536.56 1312.81 639.627 554.213 241.643 3.68787 6.03553e+17 8.74796e+14 0 2.15482e+17 1.8001e+17 0 
193 0 24.548 8.65907e+16 6540.49 218.807 157.141 6987.93 8.22203 0.824714 8.18005e+16 7.05481e+12 0 2.15877e+15 2.62439e+15 0 
5252 0 182.806 2.57932e+18 7440.46 1623.83 700.584 513.35 48.5891 4.04454 1.54703e+18 2.39863e+15 0 5.73951e+17 4.55938e+17 0 
84 1 34.484 1.21639e+17 17890.4 792.989 318.545 5459.23 243.778 -0.369032 9.91976e+16 4.23288e+13 0 1.14217e+16 1.09773e+16 0 
148 1 35.616 1.25632e+17 17182.6 976.761 356.973 5391.88 304.795 -0.0352016 1.01152e+17 8.46577e+13 0 1.25505e+16 1.1845e+16 0 
212 1 28.428 1.00277e+17 12320.6 571.877 247.417 6294.47 174.454 -7.60785 8.81851e+16 7.05481e+12 0 5.86254e+15 6.22234e+15 0 
276 1 29.016 1.02351e+17 12101.9 713.933 269.843 6249.13 213.231 -0.24509 8.88906e+16 4.23288e+13 0 6.81494e+15 6.6033e+15 0 
92 1 26.006 9.17337e+16 8561.18 417.191 211.308 6722.53 125.081 -0.326361 8.42838e+16 7.05481e+12 0 3.68966e+15 3.75316e+15 0 
156 1 26.04 9.18536e+16 7902.62 510.373 219.216 6759.86 140.702 -3.26588 8.41921e+16 3.5274e+13 0 3.76727e+15 3.85898e+15 0 
220 1 24.232 8.5476e+16 5761.42 329.543 181.632 6999.22 97.4524 0.967948 8.06012e+16 0 0 2.35631e+15 2.51857e+15 0 
284 1 24.652 8.69576e+16 5270.71 343.786 187.792 7027.43 100.172 1.64703 8.20474e+16 1.41096e+13 0 2.46213e+15 2.43391e+15 0 
588 1 37.016 2.61141e+17 21224.2 1216.77 502.924 2661.23 273.508 3.54214 1.74056e+17 2.68083e+14 0 4.56869e+16 4.11295e+16 0 
1612 1 28.538 2.0133e+17 22262.9 1082.91 468.425 3101.14 313.707 5.31025 1.3802e+17 1.55206e+14 0 3.28613e+16 3.02933e+16 0 
2124 1 35.096 2.47596e+17 20623.2 1202.63 510.51 2654.92 369.402 -3.68653 1.66465e+17 1.83425e+14 0 4.30767e+16 3.78702e+16 0 
716 1 24.904 1.75693e+17 22527.5 917.694 404.182 4036.42 285.069 9.15926 1.28623e+17 1.69315e+14 0 2.49881e+16 2.19122e+16 0 
1228 1 27.432 1.93527e+17 22204.6 1059.47 437.456 3752.4 352.797 -3.23025 1.39488e+17 1.12877e+14 0 2.77395e+16 2.61874e+16 0 
1740 1 19.582 1.38147e+17 21476 846.271 368.423 4618.01 282.877 1.74038 1.0523e+17 2.82192e+13 0 1.63107e+16 1.65788e+16 0 
2252 1 21.462 1.5141e+17 21429.2 1048.63 397.296 4327.16 338.563 -6.6619 1.13103e+17 5.64385e+13 0 1.99792e+16 1.8272e+16 0 
780 1 30.774 2.17105e+17 21001.5 1178.11 471.046 3442.91 425.335 -7.84077 1.50789e+17 8.46577e+13 0 3.48931e+16 3.13375e+16 0 
1804 1 22.43 1.58239e+17 20823.8 1220.68 402.723 4211.72 396.428 -6.74103 1.15515e+17 8.46577e+13 0 2.17429e+16 2.08963e+16 0 
5828 1 20.93 2.95314e+17 19247.8 1087.93 534.743 1999.97 213.948 -9.03263 1.8478e+17 1.97535e+14 0 5.67207e+16 5.36165e+16 0 
9924 1 25.124 3.5449e+17 17234.5 1251 565.893 1663.1 234.897 0.47788 2.22057e+17 3.95069e+14 0 6.85727e+16 6.3465e+16 0 
14020 1 19.22 2.71187e+17 20211.3 1155.81 509.623 2190.7 238.462 -0.515287 1.78035e+17 1.69315e+14 0 4.8396e+16 4.45864e+16 0 
18116 1 21.578 3.04457e+17 18160.3 1229.29 499.383 1821.47 272.728 11.8798 1.91919e+17 3.10412e+14 0 5.90064e+16 5.32215e+16 0 
6340 1 29.504 4.1629e+17 15601.5 1281.04 600.085 1399.72 249.464 3.91841 2.56259e+17 5.07946e+14 0 8.51092e+16 7.44141e+16 0 
10436 1 36.434 5.1407e+17 13122.6 1275.07 604.137 1059.74 273.507 -5.2186 3.09424e+17 5.64385e+14 0 1.0935e+17 9.4732e+16 0 
14532 1 26.926 3.79915e+17 16236.8 1302.08 560.625 1527.35 280.973 0.861121 2.369e+17 4.79727e+14 0 7.58251e+16 6.67103e+16 0 
18628 1 31.48 4.44171e+17 14155.5 1328.82 577.205 1228.39 312.425 -2.80886 2.75109e+17 5.64385e+14 0 8.99911e+16 7.85059e+16 0 
5196 1 24.17 3.41029e+17 18458.9 1359.66 562.73 2005.63 318.519 -3.33596 2.19884e+17 2.53973e+14 0 6.38883e+16 5.70028e+16 0 
9292 1 27.878 3.93348e+17 16787.9 1411.9 573.397 1737.38 344.021 -5.54139 2.47454e+17 3.6685e+14 0 7.82801e+16 6.72464e+16 0 
13388 1 21.206 2.99208e+17 19938.5 1296.27 519.959 2414.7 327.019 0.893379 1.96857e+17 1.97535e+14 0 5.36448e+16 4.85089e+16 0 
17484 1 23.446 3.30814e+17 18093.6 1253.14 547.107 2032.08 371.736 -0.510375 2.11418e+17 8.46577e+13 0 6.30135e+16 5.62974e+16 0 
4748 1 33.7 4.75494e+17 15011.2 1315.38 585.195 1452.76 375.109 -1.10131 2.97233e+17 3.6685e+14 0 9.80054e+16 7.98886e+16 0 
8844 1 39.816 5.61788e+17 12445.4 1308.7 597.83 1109.99 403.849 2.08112 3.50483e+17 4.51508e+14 0 1.14288e+17 9.65662e+16 0 
12940 1 26.49 3.73764e+17 16562.8 1391.49 597.421 1819.35 401.447 -1.43953 2.36364e+17 1.12877e+14 0 7.55429e+16 6.17437e+16 0 
17036 1 31.136 4.39317e+17 14759.7 1391.72 590.735 1536.31 455.412 -1.78614 2.77818e+17 2.53973e+14 0 8.62662e+16 7.49785e+16 0 
5772 1 21.8 3.0759e+17 17856.4 1362.2 577.072 2095.65 430.16 31.6207 1.98635e+17 1.69315e+14 0 5.80752e+16 5.071e+16 0 
9868 1 23.434 3.30645e+17 16278.8 1373.78 592.358 1830.53 486.791 3.13775 2.12717e+17 1.41096e+14 0 6.29571e+16 5.483e+16 0 
13964 1 18.272 2.57811e+17 19695.9 1466.17 544.958 2565.56 430.928 5.29246 1.7177e+17 1.69315e+14 0 4.62513e+16 3.96198e+16 0 
18060 1 19.498 2.75109e+17 18517.4 1442.09 576.405 2374.52 484.277 2.49613 1.82353e+17 3.38631e+14 0 4.93837e+16 4.30343e+16 0 
5892 1 46.104 6.5051e+17 10944.6 1291.13 600.79 801.229 297.517 1.45025 3.94448e+17 5.07946e+14 0 1.36835e+17 1.18718e+17 0 
9988 1 59.242 8.35882e+17 8126.06 1294.41 611.452 493.672 302.948 3.62659 5.09244e+17 7.61919e+14 0 1.76003e+17 1.49872e+17 0 
14084 1 39.112 5.51855e+17 11529.6 1334.49 600.747 902.393 336.823 1.87103 3.34652e+17 4.51508e+14 0 1.16235e+17 1.00517e+17 0 
18180 1 49.668 7.00796e+17 10129.5 1351.91 598.749 779.519 347.013 -1.93888 4.27098e+17 3.10412e+14 0 1.47022e+17 1.26366e+17 0 
73 1 24.324 8.58006e+16 6548.95 206.567 153.352 6981.68 14.1576 -3.82047 8.09539e+16 0 0 2.06706e+15 2.77959e+15 0 
137 1 25.952 9.15432e+16 9094.72 273.588 173.192 6754.84 23.2895 3.23806 8.4312e+16 0 0 3.1535e+15 4.07768e+15 0 
201 1 24.088 8.49681e+16 5181.46 189.433 157.208 7093.67 16.7461 1.41175 8.11726e+16 7.05481e+12 0 1.72843e+15 2.06e+15 0 
265 1 24.702 8.71339e+16 7301.09 239.796 165.321 6911.69 25.7548 -0.0325423 8.15465e+16 1.41096e+13 0 2.4974e+15 3.0759e+15 0 
81 1 23.774 8.38605e+16 4100.96 166.218 146.494 7180.7 13.9865 1.26307 8.0961e+16 0 0 1.22048e+15 1.67904e+15 0 
145 1 24.088 8.49681e+16 6055.79 249.211 161.519 7017.49 27.2768 0.608442 8.0573e+16 0 0 1.8413e+15 2.55384e+15 0 
209 1 23.282 8.2125e+16 3258.93 172.34 146.417 7241.09 18.2133 -0.898594 7.98251e+16 0 0 1.00178e+15 1.29808e+15 0 
273 1 24.108 8.50386e+16 4554.93 210.308 153.737 7136.77 25.4215 1.79742 8.17723e+16 2.82192e+13 0 1.43918e+15 1.79898e+15 0 
89 1 23.186 8.17864e+16 2525.56 162.299 145.353 7296.32 16.9881 1.92073 8.00086e+16 0 0 8.25412e+14 9.52399e+14 0 
153 1 23.278 8.21109e+16 3477.07 178.087 149.609 7222.04 20.4404 0.0558356 7.94301e+16 0 0 1.20637e+15 1.47445e+15 0 
217 1 22.928 8.08763e+16 2068.71 159.576 143.095 7333.21 11.3638 2.07257 7.94583e+16 0 0 6.70207e+14 7.4781e+14 0 
281 1 23.19 8.18005e+16 2666.86 180.723 145.78 7283.43 20.2471 -1.63663 7.99027e+16 0 0 7.61919e+14 1.13582e+15 0 
74 1 27.108 9.56209e+16 12821.2 372.694 204.804 6368.8 42.5168 1.82269 8.46224e+16 2.11644e+13 0 4.98775e+15 5.98953e+15 0 
138 1 31.23 1.10161e+17 17349 509.117 244.652 5765.26 72.9708 4.1449 9.19806e+16 5.64385e+13 0 8.82556e+15 9.29824e+15 0 
202 1 26.424 9.32081e+16 10616.9 355.468 187.757 6591.23 47.3426 -0.183801 8.44954e+16 3.5274e+13 0 3.97186e+15 4.70556e+15 0 
266 1 28.524 1.00616e+17 14367.3 434.904 216.083 6173.44 79.0228 -3.52157 8.81216e+16 1.41096e+13 0 5.91898e+15 6.56097e+15 0 
82 1 25.348 8.94126e+16 7952.64 276.479 170.607 6839.71 43.702 1.0604 8.3148e+16 7.05481e+12 0 2.90658e+15 3.35103e+15 0 
146 1 26.856 9.4732e+16 11233.9 364.507 203.748 6510.03 74.2137 -0.213498 8.52926e+16 2.82192e+13 0 4.61384e+15 4.79727e+15 0 
210 1 24.294 8.56947e+16 6451.03 248.635 166.448 6972.86 40.4841 -0.104845 8.10597e+16 1.41096e+13 0 2.22226e+15 2.39863e+15 0 
274 1 25.358 8.94479e+16 8247.3 314.954 180.958 6811.41 66.6246 -2.82876 8.32397e+16 7.05481e+12 0 2.87836e+15 3.32281e+15 0 
90 1 23.93 8.44108e+16 4272.21 212.908 153.865 7159.44 31.6913 3.01933 8.13349e+16 7.05481e+12 0 1.31219e+15 1.75665e+15 0 
154 1 24.386 8.60193e+16 5530.67 270.738 171.314 7044.98 49.633 0.847092 8.16523e+16 0 0 1.84836e+15 2.51857e+15 0 
218 1 23.278 8.21109e+16 3005.15 216.022 148.697 7252.59 23.6992 2.41869 7.98463e+16 0 0 9.17125e+14 1.34747e+15 0 
282 1 23.536 8.3021e+16 4255 249.072 155.252 7154.33 44.7394 0.247895 7.97899e+16 0 0 1.52384e+15 1.70726e+15 0 
83 1 28.58 1.00813e+17 14000 468.477 226.634 6188.69 110.621 0.957639 8.84673e+16 3.5274e+13 0 6.25761e+15 6.05302e+15 0 
211 1 26.35 9.29471e+16 10024.7 359.77 200.128 6618.9 88.3448 -4.10263 8.42979e+16 2.11644e+13 0 4.0424e+15 4.58562e+15 0 
91 1 24.908 8.78606e+16 6984.54 296.112 181.654 6909.06 71.9742 -1.31006 8.22238e+16 0 0 2.77254e+15 2.86425e+15 0 
219 1 24.058 8.48623e+16 4462.81 260.33 160.88 7131.58 51.1763 4.01069 8.12996e+16 1.41096e+13 0 1.48151e+15 2.06706e+15 0 
75 1 37.096 1.30853e+17 21667.6 684.913 319.164 4902.05 127.355 -3.97954 1.02168e+17 4.93837e+13 0 1.454e+16 1.40955e+16 0 
203 1 32.554 1.14831e+17 18126.2 592.721 264.787 5589.54 129.936 3.75214 9.50847e+16 2.82192e+13 0 9.38995e+15 1.03282e+16 0 
1731 1 17.734 1.2511e+17 22866.3 687.243 326.466 4543.71 88.7551 -0.169772 9.35609e+16 1.69315e+14 0 1.48574e+16 1.65224e+16 0 
2243 1 21.378 1.50818e+17 23761.6 821.255 379.499 3973.77 123.976 2.94749 1.09039e+17 5.64385e+13 0 2.06847e+16 2.10374e+16 0 
267 1 38.708 1.36539e+17 21451.2 825.34 331.301 4792.54 216.304 -0.717966 1.05893e+17 1.12877e+14 0 1.58239e+16 1.47093e+16 0 
147 1 30.984 1.09293e+17 16646 596.22 274.201 5784.37 171.255 5.1411 9.21781e+16 2.11644e+13 0 8.51515e+15 8.57865e+15 0 
275 1 27.416 9.67073e+16 11364.9 521.457 232.567 6447.48 125.996 -4.52402 8.62168e+16 2.82192e+13 0 5.39693e+15 5.06535e+15 0 
155 1 25.694 9.06331e+16 7685.09 391.852 186.565 6831.28 91.6597 0.782822 8.37406e+16 2.82192e+13 0 3.31576e+15 3.54857e+15 0 
283 1 24.406 8.60898e+16 5024.14 278.769 168.725 7077.17 65.8703 -1.46686 8.19628e+16 1.41096e+13 0 1.92596e+15 2.18699e+15 0 
651 1 25.118 1.77203e+17 23159.4 918.253 407.003 4004.69 168.61 2.58483 1.27847e+17 7.05481e+13 0 2.48188e+16 2.44661e+16 0 
1163 1 30.082 2.12223e+17 22961.2 1082.95 421.568 3376.27 220.999 -1.89837 1.46557e+17 2.11644e+14 0 3.38631e+16 3.15914e+16 0 
1675 1 20.822 1.46895e+17 22910.2 853.004 373.153 4220.34 200.138 14.3095 1.08051e+17 1.26987e+14 0 1.92878e+16 1.94289e+16 0 
2187 1 24.366 1.71897e+17 23227.5 973.393 417.995 3708.29 244.812 2.55361 1.22881e+17 2.39863e+14 0 2.47624e+16 2.40146e+16 0 
1795 1 25.326 1.7867e+17 23416.5 969.715 422.888 3277.88 161.002 -1.44389 1.22359e+17 1.83425e+14 0 2.76831e+16 2.8445e+16 0 
2307 1 32.226 2.27348e+17 21483 1066.7 493.529 2538.2 201.631 0.911619 1.48955e+17 2.11644e+14 0 3.9775e+16 3.84064e+16 0 
257 1 25.908 9.1388e+16 9912.94 276.306 177.004 6678.01 14.2548 -1.04583 8.32044e+16 0 0 3.56973e+15 4.61384e+15 0 
194 1 28.402 1.00185e+17 14643.1 399.289 208.998 6166.25 29.2811 2.38239 8.69223e+16 1.41096e+13 0 6.35638e+15 6.89255e+15 0 
258 1 33.284 1.17406e+17 19325 561.569 259.826 5472.24 53.3122 -0.643163 9.58607e+16 2.11644e+13 0 1.03423e+16 1.11819e+16 0 
1292 2 30.722 2.16738e+17 19788.1 1378.85 514.967 3381.89 489.298 -4.57969 1.49717e+17 9.87673e+13 0 3.5782e+16 3.11399e+16 0 
2316 2 22.492 1.58677e+17 20005.6 1251.02 457.306 4325 432.799 11.1953 1.17999e+17 9.87673e+13 0 2.10374e+16 1.95418e+16 0 
13444 2 164.222 2.31711e+18 5188 1379.89 655.457 204.315 118.876 -2.94862 1.40484e+18 1.41096e+15 0 5.12405e+17 3.98456e+17 0 
6276 2 142.894 2.01618e+18 3913.18 1221.3 620.743 47.3253 152.618 -1.9634 1.2342e+18 1.89069e+15 0 4.39768e+17 3.40324e+17 0 
14468 2 125.8 1.77499e+18 4260.05 1198.77 603.862 86.3047 154.4 2.52881 1.09079e+18 9.87673e+14 0 3.79803e+17 3.03413e+17 0 
5380 2 114.028 1.60889e+18 5304.35 1259.34 618.914 228.381 181.797 0.093505 9.83497e+17 1.01589e+15 0 3.45093e+17 2.79286e+17 0 
9476 2 185.11 2.61183e+18 3540.51 1126.49 595.921 102.892 147.076 -2.71734 1.64146e+18 1.35452e+15 0 5.62014e+17 4.07006e+17 0 
13572 2 100.11 1.41251e+18 6044.78 1309.85 620.659 306.608 233.948 -1.19925 8.62718e+17 9.31235e+14 0 3.06941e+17 2.41923e+17 0 
17668 2 157.09 2.21648e+18 4108.8 1166.03 600.962 154.507 199.681 -0.674766 1.39877e+18 2.11644e+15 0 4.66436e+17 3.49157e+17 0 
6404 2 82.554 1.16481e+18 6631.05 1270.47 618.159 364.227 293.571 0.985197 7.19026e+17 1.3263e+15 0 2.47088e+17 1.97365e+17 0 
10500 2 121.862 1.71943e+18 4649 1174.28 609.736 207.998 269.162 4.51689 1.08382e+18 1.35452e+15 0 3.58751e+17 2.75504e+17 0 
14596 2 64.32 9.0753e+17 8018.31 1247.85 608.454 537.351 368.006 2.52442 5.7175e+17 4.79727e+14 0 1.85457e+17 1.49844e+17 0 
18692 2 86.652 1.22263e+18 6310.8 1268.22 629.304 418.081 349.319 -1.97719 7.69849e+17 1.83425e+15 0 2.59589e+17 1.91355e+17 0 
5260 2 48.56 6.85163e+17 10934.7 1365.37 617.945 975.236 422.661 3.48648 4.34858e+17 5.36165e+14 0 1.41858e+17 1.0791e+17 0 
9356 2 57.448 8.10569e+17 9345.23 1479.9 651.311 869.282 461.859 -0.170179 5.10401e+17 6.20823e+14 0 1.70359e+17 1.29188e+17 0 
13452 2 35.752 5.04447e+17 14188.6 1540.17 618.424 1543.03 476.429 0.905508 3.24295e+17 3.38631e+14 0 9.87109e+16 8.11021e+16 0 
17548 2 39.664 5.59644e+17 12369.2 1440.81 622.142 1375.83 515.203 9.97684 3.55252e+17 3.10412e+14 0 1.12397e+17 9.16843e+16 0 
6284 2 25.904 3.65495e+17 15493.4 1479.01 593.852 1857.86 513.598 6.756 2.30608e+17 2.53973e+14 0 7.21566e+16 6.24774e+16 0 
10380 2 27.686 3.90639e+17 15253.1 1566.97 606.05 1931.79 543.123 7.39346 2.53578e+17 2.53973e+14 0 7.39908e+16 6.2816e+16 0 
14476 2 19.996 2.82136e+17 17953 1255.67 597.7 2422.24 521.436 1.27833 1.86727e+17 2.82192e+14 0 5.08511e+16 4.4276e+16 0 
18572 2 20.248 2.85691e+17 17132.8 1511.6 557.272 2444.25 544.131 -21.85 1.85739e+17 1.97535e+14 0 5.46889e+16 4.50661e+16 0 
9348 2 486.286 6.86131e+18 2786.32 1226.12 616.7 68.5198 54.6531 -2.04684 4.51398e+18 5.92604e+15 0 1.36005e+18 9.81352e+17 0 
17540 2 350.18 4.9409e+18 2569.09 1119.83 596.335 29.0901 108.214 -1.30959 3.18962e+18 4.12001e+15 0 1.02484e+18 7.22328e+17 0 
8 3 8.968 1.58169e+16 8094.53 3444.79 1075.62 4786.88 -167.591 -13.8901 9.59807e+15 3.5274e+12 0 3.37573e+15 2.83956e+15 0 
7 3 8.086 1.42613e+16 8952.43 3704.23 1100.88 4454.36 -326.758 0.333041 8.76207e+15 7.05481e+12 0 2.95244e+15 2.53973e+15 0 
80 3 25.416 8.96525e+16 5075.23 1456.18 461.005 6466.55 19.7376 -4.42117 7.08232e+16 3.5274e+13 0 9.74269e+15 9.05132e+15 0 
144 3 23.478 8.28164e+16 4845.24 1475.91 457.433 6510.12 12.1219 -0.508573 6.52922e+16 4.23288e+13 0 9.30529e+15 8.17652e+15 0 
208 3 28.416 1.00235e+17 4591.39 1285.8 408.578 6619.35 113.187 -1.89116 8.14478e+16 1.41096e+13 0 9.80618e+15 8.96666e+15 0 
272 3 28.242 9.96209e+16 4334.48 1276.38 397.958 6681.59 103.891 -5.75765 8.22097e+16 7.76029e+13 0 9.14303e+15 8.19063e+15 0 
88 3 27.548 9.71729e+16 4089.61 1108.64 339.653 6827.31 141.053 3.34819 8.44108e+16 2.11644e+13 0 6.92782e+15 5.81316e+15 0 
152 3 27.192 9.59172e+16 3913.61 1078.6 333.075 6841.06 131.166 -6.05466 8.36136e+16 3.5274e+13 0 6.73029e+15 5.53802e+15 0 
216 3 25.85 9.11834e+16 3490.3 793.582 282.94 6980.15 138.141 2.93537 8.23931e+16 2.11644e+13 0 4.57152e+15 4.19761e+15 0 
280 3 26.062 9.19312e+16 3179.3 776.067 280.059 7019.2 128.097 1.54744 8.33949e+16 7.05481e+12 0 4.59268e+15 3.93658e+15 0 
96 3 24.866 8.77124e+16 2885.16 620.482 245.872 7117 126.656 3.28918 8.19275e+16 7.05481e+12 0 3.18172e+15 2.59617e+15 0 
160 3 25.568 9.01887e+16 2746.08 645.981 236.357 7122.59 122.029 -0.0181528 8.42062e+16 1.41096e+13 0 3.20288e+15 2.76548e+15 0 
224 3 24.346 8.58782e+16 2504.21 542.342 209.001 7192.03 109.017 -0.174585 8.17158e+16 2.11644e+13 0 2.35631e+15 1.78487e+15 0 
288 3 24.06 8.48693e+16 2207.13 494.799 210.734 7214.5 105.645 1.70777 8.06294e+16 7.05481e+12 0 2.39158e+15 1.8413e+15 0 
79 3 28.162 9.93387e+16 5901.5 1880.05 535.149 6211.1 41.2061 3.30114 7.34194e+16 5.64385e+13 0 1.3517e+16 1.23459e+16 0 
143 3 26.444 9.32787e+16 5498.03 1614.91 485.126 6334.08 32.7783 1.6548 7.13312e+16 2.11644e+13 0 1.16898e+16 1.02365e+16 0 
207 3 30.884 1.0894e+17 5442.12 1523.83 445.985 6480.87 160.568 1.1514 8.73174e+16 4.23288e+13 0 1.13512e+16 1.02295e+16 0 
271 3 29.692 1.04736e+17 5040.46 1402.45 438.124 6543.01 132.352 8.25383 8.43191e+16 3.5274e+13 0 1.07656e+16 9.6157e+15 0 
87 3 28.138 9.92541e+16 5088.62 1125.4 334.066 6709.04 176.412 7.68986 8.51021e+16 4.23288e+13 0 7.59803e+15 6.51159e+15 0 
151 3 27.662 9.7575e+16 4425.21 1114.88 352.877 6789.99 156.38 -0.480939 8.4178e+16 2.82192e+13 0 7.06892e+15 6.29994e+15 0 
215 3 26.604 9.3843e+16 4440.53 842.531 280.518 6907.05 164.555 3.67408 8.49681e+16 4.23288e+13 0 4.79021e+15 4.03535e+15 7.05481e+12 
279 3 26.342 9.29189e+16 3780.42 891.815 272.132 6959.27 154.751 -2.3082 8.4051e+16 2.11644e+13 0 4.76905e+15 4.07768e+15 0 
95 3 25.296 8.92292e+16 3609.86 605.805 227.095 7060.76 131.72 6.25729 8.32326e+16 0 0 3.40747e+15 2.58911e+15 0 
159 3 25.516 9.00052e+16 3323.05 640.533 247.298 7075.07 141.037 3.63832 8.36912e+16 2.82192e+13 0 3.51329e+15 2.77254e+15 0 
223 3 24.5 8.64214e+16 2972.51 516.004 208.011 7166.74 116.341 -5.13344 8.2252e+16 7.05481e+12 0 2.29281e+15 1.86952e+15 0 
287 3 24.072 8.49117e+16 2680.19 486.526 200.997 7188.79 120.281 0.161484 8.06082e+16 0 0 2.15877e+15 2.14466e+15 0 
142 3 30.48 1.07515e+17 6367.64 1902.15 579.238 6092.21 70.7878 -7.11916 7.77581e+16 4.93837e+13 0 1.53795e+16 1.43283e+16 0 
270 3 31.498 1.11106e+17 6328.46 1485.77 468.416 6356.65 188.935 2.87841 8.80581e+16 2.11644e+13 0 1.2099e+16 1.09279e+16 0 
150 3 28.752 1.0142e+17 5858.84 1127.09 367.555 6646.7 207.464 -0.152238 8.67389e+16 2.82192e+13 0 7.9296e+15 6.72323e+15 0 
278 3 27.2 9.59454e+16 5245.32 867.26 288.727 6843.57 184.656 4.8627 8.60686e+16 7.05481e+12 0 5.29111e+15 4.57857e+15 0 
158 3 25.366 8.94761e+16 4587.67 647.012 237.211 6984.22 160.112 6.46368 8.28164e+16 1.41096e+13 0 3.62617e+15 3.01946e+15 0 
286 3 24.324 8.58006e+16 3324.14 454.475 203.325 7143.1 117.856 1.25285 8.11021e+16 2.82192e+13 0 2.58911e+15 2.08117e+15 0 
94 3 25.538 9.00828e+16 5300.88 590.734 228.449 6933.6 167.402 -2.99284 8.29928e+16 0 0 3.70377e+15 3.38631e+15 0 
222 3 24.262 8.55819e+16 3898.96 445.855 204.537 7103.47 120.374 1.85858 8.08763e+16 0 0 2.34925e+15 2.35631e+15 0 
6 3 6.424 1.22041e+16 9604.23 3516.8 1026.65 3763.87 -598.545 -51.812 6.99871e+15 0 0 2.72046e+15 2.48489e+15 0 
206 3 33.486 1.18119e+17 8104.58 1707.91 512.69 6105.72 257.34 1.33176 9.27707e+16 3.5274e+13 0 1.38698e+16 1.14429e+16 0 
86 3 29.798 1.0511e+17 7822.48 1270.58 385.863 6415.12 263.245 0.746183 8.87495e+16 0 0 8.91022e+15 7.44988e+15 0 
214 3 27.976 9.86826e+16 6659.23 858.649 290.762 6702.61 209.197 -7.12756 8.74302e+16 1.41096e+13 0 6.20823e+15 5.03008e+15 0 
1165 3 18.426 1.29992e+17 8031.19 2430.48 693.065 5507.83 64.7512 3.77951 8.55607e+16 4.23288e+13 0 2.35631e+16 2.08258e+16 0 
2189 3 19.804 1.39713e+17 9198.23 2440.76 627.366 5511.96 239.494 -1.15842 9.66226e+16 8.46577e+13 0 2.3295e+16 1.97111e+16 0 
1293 3 19.208 1.35509e+17 10168.1 1879.67 531.278 5720.54 302.477 3.14414 1.02464e+17 2.82192e+13 0 1.8145e+16 1.48715e+16 0 
2317 3 17.118 1.20764e+17 10470.9 1567.21 483.435 5909.69 331.196 3.80955 9.51129e+16 4.23288e+13 0 1.41661e+16 1.14429e+16 0 
590 3 17.004 1.1996e+17 7524.46 2189.96 657.883 5778.9 17.8126 -4.50582 8.3924e+16 1.12877e+14 0 1.92032e+16 1.67199e+16 0 
1102 3 15.086 1.06429e+17 7006.17 2049.68 611.09 5901.4 9.40172 12.1035 7.40473e+16 2.82192e+13 0 1.73125e+16 1.50408e+16 0 
1614 3 17.844 1.25886e+17 7930.54 2129.79 690.667 5752.55 190.805 -2.60587 8.81851e+16 5.64385e+13 0 2.06283e+16 1.70162e+16 0 
2126 3 17.188 1.21258e+17 7103.99 2037.47 622.908 5898.14 148.025 -0.38523 8.53632e+16 2.82192e+13 0 1.87093e+16 1.71573e+16 0 
5 3 166.986 2.8558e+18 2905.55 1015.03 577.358 106.937 188.829 0.957251 1.89158e+18 2.70212e+15 0 5.63135e+17 3.98374e+17 0 
5 3 2.252 1.59823e+16 8645.04 3090.94 983.449 2454.4 -634.305 52.037 8.45957e+15 1.41939e+13 0 4.38592e+15 3.12266e+15 0 
85 3 34.206 1.20658e+17 14650.9 1232.41 383.927 5630.18 339.271 -0.112076 9.76315e+16 6.34933e+13 0 1.23812e+16 1.05822e+16 0 
149 3 31.75 1.11995e+17 10793.4 1241.8 377.718 6113.92 303.5 -1.89835 9.28201e+16 3.5274e+13 0 1.02859e+16 8.85378e+15 0 
213 3 28.924 1.02027e+17 10449.6 776.935 285.951 6391.69 225.701 0.0578927 8.94761e+16 2.82192e+13 0 6.63152e+15 5.89076e+15 0 
277 3 27.856 9.82594e+16 8472.2 860.675 292.344 6540.3 227.928 -0.710382 8.63508e+16 4.23288e+13 0 6.10241e+15 5.76378e+15 0 
93 3 26.076 9.19806e+16 7131.18 517.655 233.52 6809.66 159.398 2.05931 8.44672e+16 2.82192e+13 0 3.80254e+15 3.68261e+15 0 
157 3 25.898 9.13527e+16 6517.98 615.916 240.432 6831.93 170.833 0.0447953 8.35007e+16 1.41096e+13 0 4.21172e+15 3.62617e+15 0 
221 3 24.95 8.80087e+16 5415.69 392.699 192.647 7004.46 122.068 5.29823 8.27599e+16 2.11644e+13 0 2.66672e+15 2.5609e+15 0 
285 3 24.506 8.64426e+16 4535.22 475.867 199.984 7056.99 121.396 -2.74759 8.17229e+16 7.05481e+12 0 2.5609e+15 2.15172e+15 0 
2125 3 30.928 2.18191e+17 15517.4 2090.11 675.327 3741.84 509.877 -7.01782 1.48095e+17 1.26987e+14 0 3.90977e+16 3.08718e+16 0 
653 3 21.334 1.50507e+17 9671.32 2447.78 754.446 5106.89 120.648 12.1824 9.83158e+16 7.05481e+13 0 2.81487e+16 2.39722e+16 0 
1677 3 22.194 1.56574e+17 12034 2441.09 701.548 4933.41 355.581 2.94526 1.07727e+17 7.05481e+13 0 2.75279e+16 2.12491e+16 0 
717 3 28.884 2.03771e+17 18533.1 1577.77 562.864 3771.68 511.807 -0.229197 1.43537e+17 9.87673e+13 0 3.24521e+16 2.76831e+16 0 
1229 3 24.67 1.74042e+17 16334.7 1794.92 545.135 4497.72 486.827 4.05567 1.24898e+17 9.87673e+13 0 2.59194e+16 2.31257e+16 0 
1741 3 22.2 1.56617e+17 18390.8 1402.48 467.993 4558.99 442.058 5.77854 1.15798e+17 1.12877e+14 0 2.14325e+16 1.92737e+16 0 
2253 3 19.49 1.37498e+17 15943.3 1520.89 511.154 5046.9 430.769 2.00239 1.0317e+17 1.26987e+14 0 1.82861e+16 1.59156e+16 0 
781 3 21.282 1.5014e+17 13280.6 1939.8 566.892 5192.99 409.856 -0.337495 1.11748e+17 7.05481e+13 0 2.10657e+16 1.72561e+16 0 
1805 3 17.848 1.25914e+17 13178.7 1580.92 459.403 5482.06 394.145 9.48363 9.67778e+16 8.46577e+13 0 1.54782e+16 1.35734e+16 0 
4685 3 69 9.73563e+17 7898.64 1337.82 628.834 783.608 457.966 5.04067 6.25366e+17 4.51508e+14 0 1.98099e+17 1.49647e+17 0 
8781 3 67.156 9.47545e+17 7918.3 1443.61 646.718 1014.03 451.566 3.05945 6.17662e+17 6.20823e+14 0 1.89266e+17 1.39996e+17 0 
12877 3 40.14 5.6636e+17 11622 1622.84 635.116 1440.96 548.164 -1.55424 3.62589e+17 4.51508e+14 0 1.13949e+17 8.93703e+16 0 
16973 3 35.102 4.95276e+17 12128 1723.25 684.69 1830.05 560.684 7.696 3.19357e+17 2.53973e+14 0 9.67355e+16 7.89292e+16 0 
5197 3 23.94 3.43009e+17 13442.5 1972.39 716.288 2709.86 315.717 -1.3824 2.28328e+17 1.14623e+14 0 6.6997e+16 4.75684e+16 0 