ITEM: TIMESTEP
13000
ITEM: NUMBER OF CELLS
246
ITEM: BOX BOUNDS oo ao pp
-10 10
0 10
-0.5 0.5
ITEM: CELLS id proc f_avg_n f_avg_nrho f_avg_temp_tra f_avg_temp_rot f_avg_temp_vib f_avg_vel[1] f_avg_vel[2] f_avg_vel[3] f_avg_nrho_CO2 f_avg_nrho_O2 f_avg_nrho_C2 f_avg_nrho_CO f_avg_nrho_O f_avg_nrho_C 
65 0 0 0 0 0 0 0 0 0 0 0 0 0 0 0 
129 0 0 0 0 0 0 0 0 0 0 0 0 0 0 0 
193 0 0 0 0 0 0 0 0 0 0 0 0 0 0 0 
257 0 0 0 0 0 0 0 0 0 0 0 0 0 0 0 
73 0 0 0 0 0 0 0 0 0 0 0 0 0 0 0 
137 0 0 0 0 0 0 0 0 0 0 0 0 0 0 0 
201 0 0 0 0 0 0 0 0 0 0 0 0 0 0 0 
265 0 0 0 0 0 0 0 0 0 0 0 0 0 0 0 
81 0 0 0 0 0 0 0 0 0 0 0 0 0 0 0 
145 0 0 0 0 0 0 0 0 0 0 0 0 0 0 0 
209 0 0 0 0 0 0 0 0 0 0 0 0 0 0 0 
273 0 0 0 0 0 0 0 0 0 0 0 0 0 0 0 
89 0 0 0 0 0 0 0 0 0 0 0 0 0 0 0 
153 0 0 0 0 0 0 0 0 0 0 0 0 0 0 0 
217 0 0 0 0 0 0 0 0 0 0 0 0 0 0 0 
281 0 0 0 0 0 0 0 0 0 0 0 0 0 0 0 
66 0 0 0 0 0 0 0 0 0 0 0 0 0 0 0 
130 0 0 0 0 0 0 0 0 0 0 0 0 0 0 0 
194 0 0 0 0 0 0 0 0 0 0 0 0 0 0 0 
258 0 0 0 0 0 0 0 0 0 0 0 0 0 0 0 
74 0 0 0 0 0 0 0 0 0 0 0 0 0 0 0 
138 0 0 0 0 0 0 0 0 0 0 0 0 0 0 0 
202 0 0 0 0 0 0 0 0 0 0 0 0 0 0 0 
266 0 0 0 0 0 0 0 0 0 0 0 0 0 0 0 
82 0 0 0 0 0 0 0 0 0 0 0 0 0 0 0 
146 0 0 0 0 0 0 0 0 0 0 0 0 0 0 0 
210 0 0 0 0 0 0 0 0 0 0 0 0 0 0 0 
274 0 0 0 0 0 0 0 0 0 0 0 0 0 0 0 
90 0 0 0 0 0 0 0 0 0 0 0 0 0 0 0 
154 0 0 0 0 0 0 0 0 0 0 0 0 0 0 0 
218 0 0 0 0 0 0 0 0 0 0 0 0 0 0 0 
282 0 0 0 0 0 0 0 0 0 0 0 0 0 0 0 
83 0 0 0 0 0 0 0 0 0 0 0 0 0 0 0 
211 0 0 0 0 0 0 0 0 0 0 0 0 0 0 0 
91 0 0 0 0 0 0 0 0 0 0 0 0 0 0 0 
219 0 0 0 0 0 0 0 0 0 0 0 0 0 0 0 
75 0 0 0 0 0 0 0 0 0 0 0 0 0 0 0 
203 0 0 0 0 0 0 0 0 0 0 0 0 0 0 0 
579 0 0 0 0 0 0 0 0 0 0 0 0 0 0 0 
1091 0 0 0 0 0 0 0 0 0 0 0 0 0 0 0 
1603 0 0 0 0 0 0 0 0 0 0 0 0 0 0 0 
2115 0 0 0 0 0 0 0 0 0 0 0 0 0 0 0 
707 0 0 0 0 0 0 0 0 0 0 0 0 0 0 0 
1219 0 0 0 0 0 0 0 0 0 0 0 0 0 0 0 
1731 0 0 0 0 0 0 0 0 0 0 0 0 0 0 0 
2243 0 0 0 0 0 0 0 0 0 0 0 0 0 0 0 
267 0 0 0 0 0 0 0 0 0 0 0 0 0 0 0 
147 0 0 0 0 0 0 0 0 0 0 0 0 0 0 0 
275 0 0 0 0 0 0 0 0 0 0 0 0 0 0 0 
155 0 0 0 0 0 0 0 0 0 0 0 0 0 0 0 
283 0 0 0 0 0 0 0 0 0 0 0 0 0 0 0 
651 0 0 0 0 0 0 0 0 0 0 0 0 0 0 0 
1163 0 0 0 0 0 0 0 0 0 0 0 0 0 0 0 
1675 0 0 0 0 0 0 0 0 0 0 0 0 0 0 0 
2187 0 0 0 0 0 0 0 0 0 0 0 0 0 0 0 
643 0 0 0 0 0 0 0 0 0 0 0 0 0 0 0 
1667 0 0 0 0 0 0 0 0 0 0 0 0 0 0 0 
2179 0 0 0 0 0 0 0 0 0 0 0 0 0 0 0 
771 0 0 0 0 0 0 0 0 0 0 0 0 0 0 0 
1283 0 0 0 0 0 0 0 0 0 0 0 0 0 0 0 
1795 0 0 0 0 0 0 0 0 0 0 0 0 0 0 0 
2307 0 0 0 0 0 0 0 0 0 0 0 0 0 0 0 
5251 0 0 0 0 0 0 0 0 0 0 0 0 0 0 0 
9347 0 0 0 0 0 0 0 0 0 0 0 0 0 0 0 
13443 0 0 0 0 0 0 0 0 0 0 0 0 0 0 0 
17539 0 0 0 0 0 0 0 0 0 0 0 0 0 0 0 
84 1 0 0 0 0 0 0 0 0 0 0 0 0 0 0 
148 1 0 0 0 0 0 0 0 0 0 0 0 0 0 0 
212 1 0 0 0 0 0 0 0 0 0 0 0 0 0 0 
276 1 0 0 0 0 0 0 0 0 0 0 0 0 0 0 
92 1 0 0 0 0 0 0 0 0 0 0 0 0 0 0 
156 1 0 0 0 0 0 0 0 0 0 0 0 0 0 0 
220 1 0 0 0 0 0 0 0 0 0 0 0 0 0 0 
284 1 0 0 0 0 0 0 0 0 0 0 0 0 0 0 
588 1 0 0 0 0 0 0 0 0 0 0 0 0 0 0 
1612 1 0 0 0 0 0 0 0 0 0 0 0 0 0 0 
2124 1 0 0 0 0 0 0 0 0 0 0 0 0 0 0 
716 1 0 0 0 0 0 0 0 0 0 0 0 0 0 0 
1228 1 0 0 0 0 0 0 0 0 0 0 0 0 0 0 
1740 1 0 0 0 0 0 0 0 0 0 0 0 0 0 0 
2252 1 0 0 0 0 0 0 0 0 0 0 0 0 0 0 
780 1 0 0 0 0 0 0 0 0 0 0 0 0 0 0 
1804 1 0 0 0 0 0 0 0 0 0 0 0 0 0 0 
4676 1 0 0 0 0 0 0 0 0 0 0 0 0 0 0 
8772 1 0 0 0 0 0 0 0 0 0 0 0 0 0 0 
12868 1 0 0 0 0 0 0 0 0 0 0 0 0 0 0 
16964 1 0 0 0 0 0 0 0 0 0 0 0 0 0 0 
5188 1 0 0 0 0 0 0 0 0 0 0 0 0 0 0 
9284 1 0 0 0 0 0 0 0 0 0 0 0 0 0 0 
13380 1 0 0 0 0 0 0 0 0 0 0 0 0 0 0 
17476 1 0 0 0 0 0 0 0 0 0 0 0 0 0 0 
5700 1 0 0 0 0 0 0 0 0 0 0 0 0 0 0 
9796 1 0 0 0 0 0 0 0 0 0 0 0 0 0 0 
13892 1 0 0 0 0 0 0 0 0 0 0 0 0 0 0 
17988 1 0 0 0 0 0 0 0 0 0 0 0 0 0 0 
6212 1 0 0 0 0 0 0 0 0 0 0 0 0 0 0 
10308 1 0 0 0 0 0 0 0 0 0 0 0 0 0 0 
14404 1 0 0 0 0 0 0 0 0 0 0 0 0 0 0 
18500 1 0 0 0 0 0 0 0 0 0 0 0 0 0 0 
4804 1 0 0 0 0 0 0 0 0 0 0 0 0 0 0 
8900 1 0 0 0 0 0 0 0 0 0 0 0 0 0 0 
12996 1 0 0 0 0 0 0 0 0 0 0 0 0 0 0 
17092 1 0 0 0 0 0 0 0 0 0 0 0 0 0 0 
5316 1 0 0 0 0 0 0 0 0 0 0 0 0 0 0 
9412 1 0 0 0 0 0 0 0 0 0 0 0 0 0 0 
13508 1 0 0 0 0 0 0 0 0 0 0 0 0 0 0 
17604 1 0 0 0 0 0 0 0 0 0 0 0 0 0 0 
5828 1 0 0 0 0 0 0 0 0 0 0 0 0 0 0 
9924 1 0 0 0 0 0 0 0 0 0 0 0 0 0 0 
14020 1 0 0 0 0 0 0 0 0 0 0 0 0 0 0 
18116 1 0 0 0 0 0 0 0 0 0 0 0 0 0 0 
6340 1 0 0 0 0 0 0 0 0 0 0 0 0 0 0 
10436 1 0 0 0 0 0 0 0 0 0 0 0 0 0 0 
14532 1 0 0 0 0 0 0 0 0 0 0 0 0 0 0 
18628 1 0 0 0 0 0 0 0 0 0 0 0 0 0 0 
5196 1 0 0 0 0 0 0 0 0 0 0 0 0 0 0 
9292 1 0 0 0 0 0 0 0 0 0 0 0 0 0 0 
13388 1 0 0 0 0 0 0 0 0 0 0 0 0 0 0 
17484 1 0 0 0 0 0 0 0 0 0 0 0 0 0 0 
4748 1 0 0 0 0 0 0 0 0 0 0 0 0 0 0 
8844 1 0 0 0 0 0 0 0 0 0 0 0 0 0 0 
12940 1 0 0 0 0 0 0 0 0 0 0 0 0 0 0 
17036 1 0 0 0 0 0 0 0 0 0 0 0 0 0 0 
5772 1 0 0 0 0 0 0 0 0 0 0 0 0 0 0 
9868 1 0 0 0 0 0 0 0 0 0 0 0 0 0 0 
13964 1 0 0 0 0 0 0 0 0 0 0 0 0 0 0 
18060 1 0 0 0 0 0 0 0 0 0 0 0 0 0 0 
4740 1 0 0 0 0 0 0 0 0 0 0 0 0 0 0 
8836 1 0 0 0 0 0 0 0 0 0 0 0 0 0 0 
12932 1 0 0 0 0 0 0 0 0 0 0 0 0 0 0 
17028 1 0 0 0 0 0 0 0 0 0 0 0 0 0 0 
5764 1 0 0 0 0 0 0 0 0 0 0 0 0 0 0 
9860 1 0 0 0 0 0 0 0 0 0 0 0 0 0 0 
13956 1 0 0 0 0 0 0 0 0 0 0 0 0 0 0 
18052 1 0 0 0 0 0 0 0 0 0 0 0 0 0 0 
4868 1 0 0 0 0 0 0 0 0 0 0 0 0 0 0 
8964 1 0 0 0 0 0 0 0 0 0 0 0 0 0 0 
13060 1 0 0 0 0 0 0 0 0 0 0 0 0 0 0 
17156 1 0 0 0 0 0 0 0 0 0 0 0 0 0 0 
5892 1 0 0 0 0 0 0 0 0 0 0 0 0 0 0 
9988 1 0 0 0 0 0 0 0 0 0 0 0 0 0 0 
14084 1 0 0 0 0 0 0 0 0 0 0 0 0 0 0 
18180 1 0 0 0 0 0 0 0 0 0 0 0 0 0 0 
5 2 0 0 0 0 0 0 0 0 0 0 0 0 0 0 
5 2 0 0 0 0 0 0 0 0 0 0 0 0 0 0 
85 2 0 0 0 0 0 0 0 0 0 0 0 0 0 0 
149 2 0 0 0 0 0 0 0 0 0 0 0 0 0 0 
213 2 0 0 0 0 0 0 0 0 0 0 0 0 0 0 
277 2 0 0 0 0 0 0 0 0 0 0 0 0 0 0 
93 2 0 0 0 0 0 0 0 0 0 0 0 0 0 0 
157 2 0 0 0 0 0 0 0 0 0 0 0 0 0 0 
221 2 0 0 0 0 0 0 0 0 0 0 0 0 0 0 
285 2 0 0 0 0 0 0 0 0 0 0 0 0 0 0 
2125 2 0 0 0 0 0 0 0 0 0 0 0 0 0 0 
653 2 0 0 0 0 0 0 0 0 0 0 0 0 0 0 
1677 2 0 0 0 0 0 0 0 0 0 0 0 0 0 0 
717 2 0 0 0 0 0 0 0 0 0 0 0 0 0 0 
1229 2 0 0 0 0 0 0 0 0 0 0 0 0 0 0 
1741 2 0 0 0 0 0 0 0 0 0 0 0 0 0 0 
2253 2 0 0 0 0 0 0 0 0 0 0 0 0 0 0 
781 2 0 0 0 0 0 0 0 0 0 0 0 0 0 0 
1805 2 0 0 0 0 0 0 0 0 0 0 0 0 0 0 
1292 2 0 0 0 0 0 0 0 0 0 0 0 0 0 0 
2316 2 0 0 0 0 0 0 0 0 0 0 0 0 0 0 
4685 2 0 0 0 0 0 0 0 0 0 0 0 0 0 0 
8781 2 0 0 0 0 0 0 0 0 0 0 0 0 0 0 
12877 2 0 0 0 0 0 0 0 0 0 0 0 0 0 0 
16973 2 0 0 0 0 0 0 0 0 0 0 0 0 0 0 
5197 2 0 0 0 0 0 0 0 0 0 0 0 0 0 0 
9293 2 0 0 0 0 0 0 0 0 0 0 0 0 0 0 
13389 2 0 0 0 0 0 0 0 0 0 0 0 0 0 0 
17485 2 0 0 0 0 0 0 0 0 0 0 0 0 0 0 
5709 2 0 0 0 0 0 0 0 0 0 0 0 0 0 0 
9805 2 0 0 0 0 0 0 0 0 0 0 0 0 0 0 
13901 2 0 0 0 0 0 0 0 0 0 0 0 0 0 0 
17997 2 0 0 0 0 0 0 0 0 0 0 0 0 0 0 
5252 2 0 0 0 0 0 0 0 0 0 0 0 0 0 0 
9348 2 0 0 0 0 0 0 0 0 0 0 0 0 0 0 
13444 2 0 0 0 0 0 0 0 0 0 0 0 0 0 0 
17540 2 0 0 0 0 0 0 0 0 0 0 0 0 0 0 
6276 2 0 0 0 0 0 0 0 0 0 0 0 0 0 0 
10372 2 0 0 0 0 0 0 0 0 0 0 0 0 0 0 
14468 2 0 0 0 0 0 0 0 0 0 0 0 0 0 0 
18564 2 0 0 0 0 0 0 0 0 0 0 0 0 0 0 
5380 2 0 0 0 0 0 0 0 0 0 0 0 0 0 0 
9476 2 0 0 0 0 0 0 0 0 0 0 0 0 0 0 
13572 2 0 0 0 0 0 0 0 0 0 0 0 0 0 0 
17668 2 0 0 0 0 0 0 0 0 0 0 0 0 0 0 
6404 2 0 0 0 0 0 0 0 0 0 0 0 0 0 0 
10500 2 0 0 0 0 0 0 0 0 0 0 0 0 0 0 
14596 2 0 0 0 0 0 0 0 0 0 0 0 0 0 0 
18692 2 0 0 0 0 0 0 0 0 0 0 0 0 0 0 
5260 2 0 0 0 0 0 0 0 0 0 0 0 0 0 0 
9356 2 0 0 0 0 0 0 0 0 0 0 0 0 0 0 
13452 2 0 0 0 0 0 0 0 0 0 0 0 0 0 0 
17548 2 0 0 0 0 0 0 0 0 0 0 0 0 0 0 
6284 2 0 0 0 0 0 0 0 0 0 0 0 0 0 0 
10380 2 0 0 0 0 0 0 0 0 0 0 0 0 0 0 
14476 2 0 0 0 0 0 0 0 0 0 0 0 0 0 0 
18572 2 0 0 0 0 0 0 0 0 0 0 0 0 0 0 
8 3 0 0 0 0 0 0 0 0 0 0 0 0 0 0 
7 3 0 0 0 0 0 0 0 0 0 0 0 0 0 0 
80 3 0 0 0 0 0 0 0 0 0 0 0 0 0 0 
144 3 0 0 0 0 0 0 0 0 0 0 0 0 0 0 
208 3 0 0 0 0 0 0 0 0 0 0 0 0 0 0 
272 3 0 0 0 0 0 0 0 0 0 0 0 0 0 0 
88 3 0 0 0 0 0 0 0 0 0 0 0 0 0 0 
152 3 0 0 0 0 0 0 0 0 0 0 0 0 0 0 
216 3 0 0 0 0 0 0 0 0 0 0 0 0 0 0 
280 3 0 0 0 0 0 0 0 0 0 0 0 0 0 0 
96 3 0 0 0 0 0 0 0 0 0 0 0 0 0 0 
160 3 0 0 0 0 0 0 0 0 0 0 0 0 0 0 
224 3 0 0 0 0 0 0 0 0 0 0 0 0 0 0 
288 3 0 0 0 0 0 0 0 0 0 0 0 0 0 0 
79 3 0 0 0 0 0 0 0 0 0 0 0 0 0 0 
143 3 0 0 0 0 0 0 0 0 0 0 0 0 0 0 
207 3 0 0 0 0 0 0 0 0 0 0 0 0 0 0 
271 3 0 0 0 0 0 0 0 0 0 0 0 0 0 0 
87 3 0 0 0 0 0 0 0 0 0 0 0 0 0 0 
151 3 0 0 0 0 0 0 0 0 0 0 0 0 0 0 
215 3 0 0 0 0 0 0 0 0 0 0 0 0 0 0 
279 3 0 0 0 0 0 0 0 0 0 0 0 0 0 0 
95 3 0 0 0 0 0 0 0 0 0 0 0 0 0 0 
159 3 0 0 0 0 0 0 0 0 0 0 0 0 0 0 
223 3 0 0 0 0 0 0 0 0 0 0 0 0 0 0 
287 3 0 0 0 0 0 0 0 0 0 0 0 0 0 0 
142 3 0 0 0 0 0 0 0 0 0 0 0 0 0 0 
270 3 0 0 0 0 0 0 0 0 0 0 0 0 0 0 
150 3 0 0 0 0 0 0 0 0 0 0 0 0 0 0 
278 3 0 0 0 0 0 0 0 0 0 0 0 0 0 0 
158 3 0 0 0 0 0 0 0 0 0 0 0 0 0 0 
286 3 0 0 0 0 0 0 0 0 0 0 0 0 0 0 
94 3 0 0 0 0 0 0 0 0 0 0 0 0 0 0 
222 3 0 0 0 0 0 0 0 0 0 0 0 0 0 0 
6 3 0 0 0 0 0 0 0 0 0 0 0 0 0 0 
206 3 0 0 0 0 0 0 0 0 0 0 0 0 0 0 
86 3 0 0 0 0 0 0 0 0 0 0 0 0 0 0 
214 3 0 0 0 0 0 0 0 0 0 0 0 0 0 0 
1165 3 0 0 0 0 0 0 0 0 0 0 0 0 0 0 
2189 3 0 0 0 0 0 0 0 0 0 0 0 0 0 0 
1293 3 0 0 0 0 0 0 0 0 0 0 0 0 0 0 
2317 3 0 0 0 0 0 0 0 0 0 0 0 0 0 0 
590 3 0 0 0 0 0 0 0 0 0 0 0 0 0 0 
1102 3 0 0 0 0 0 0 0 0 0 0 0 0 0 0 
1614 3 0 0 0 0 0 0 0 0 0 0 0 0 0 0 
2126 3 0 0 0 0 0 0 0 0 0 0 0 0 0 0 
