ITEM: TIMESTEP
17000
ITEM: NUMBER OF CELLS
246
ITEM: BOX BOUNDS oo ao pp
-10 10
0 10
-0.5 0.5
ITEM: CELLS id proc f_avg_n f_avg_nrho f_avg_temp_tra f_avg_temp_rot f_avg_temp_vib f_avg_vel[1] f_avg_vel[2] f_avg_vel[3] f_avg_nrho_CO2 f_avg_nrho_O2 f_avg_nrho_C2 f_avg_nrho_CO f_avg_nrho_O f_avg_nrho_C 
65 0 24.5075 8.64478e+16 6239.58 194.599 155.057 7007.51 11.5633 1.1784 8.16594e+16 8.81851e+12 0 2.11644e+15 2.66319e+15 0 
129 0 26.7575 9.43845e+16 10124 321.827 182.043 6652.5 16.5973 -0.397405 8.53984e+16 0 0 4.0477e+15 4.93837e+15 0 
66 0 29.57 1.04305e+17 13836.9 385.39 212.624 6252.79 27.7631 -7.85007 9.11834e+16 1.7637e+13 0 5.78494e+15 7.31936e+15 0 
130 0 34.83 1.22859e+17 18894.2 535.339 270.133 5525.99 27.4797 0.708397 9.99402e+16 3.5274e+13 0 1.10496e+16 1.18344e+16 0 
579 0 29.9725 2.1145e+17 16409.3 617.701 257.763 5835.38 43.676 -16.5573 1.74677e+17 1.7637e+13 0 1.67904e+16 1.99651e+16 0 
1091 0 32.47 2.2907e+17 19409.4 744.724 301.055 5351.2 65.6771 12.2454 1.83178e+17 1.7637e+13 0 2.14643e+16 2.44096e+16 0 
1603 0 17.6725 1.24676e+17 24058.5 701.555 359.61 4055.04 39.8016 -5.7289 9.11128e+16 3.5274e+13 0 1.61202e+16 1.74077e+16 0 
2115 0 21.9875 1.55118e+17 23833.1 808.123 429.331 3315.58 65.2487 -9.29451 1.06281e+17 3.5274e+13 0 2.37571e+16 2.50446e+16 0 
707 0 21.69 1.53019e+17 21570.4 697.422 296.2 4928.18 68.9399 -2.27504 1.17321e+17 5.29111e+13 0 1.65788e+16 1.90656e+16 0 
1219 0 24.1875 1.70638e+17 23466.4 839.194 362.195 4210.01 88.2486 5.44583 1.25364e+17 3.5274e+13 0 2.23108e+16 2.29281e+16 0 
643 0 38.9725 2.74943e+17 21585.5 907.439 358.602 4737.58 60.024 -13.9148 2.05383e+17 5.29111e+13 0 3.54151e+16 3.40924e+16 0 
1667 0 27.63 1.94924e+17 22009.9 1057.33 451.332 2577.42 62.6997 -10.2873 1.25787e+17 7.05481e+13 0 3.46391e+16 3.44275e+16 0 
2179 0 37.2025 2.62456e+17 19221.6 1178.79 520.23 1917.72 83.603 0.850064 1.6316e+17 2.29281e+14 0 5.0389e+16 4.86782e+16 0 
771 0 30.0675 2.1212e+17 23613.2 955.713 416.298 3579.49 105.78 -6.97479 1.49103e+17 1.41096e+14 0 3.00888e+16 3.27872e+16 0 
1283 0 38.5325 2.71839e+17 21990.9 1126.56 486.526 2804.66 129.868 -4.52668 1.78928e+17 1.7637e+14 0 4.63501e+16 4.63854e+16 0 
5251 0 28.635 4.04029e+17 18312.2 997.017 378.914 5313.66 54.4695 1.5175 3.11046e+17 1.7637e+14 0 4.61737e+16 4.66323e+16 0 
9347 0 30.7925 4.3447e+17 21339.1 999.287 405.363 4615.35 53.8664 21.3198 3.18948e+17 2.46918e+14 0 5.73909e+16 5.78847e+16 0 
13443 0 20.005 2.82263e+17 23049.1 1044.46 470.075 3480.2 45.0933 -14.6782 1.91926e+17 1.7637e+14 0 4.55741e+16 4.45864e+16 0 
17539 0 23.2175 3.2759e+17 22111.6 1186.99 502.444 2928.84 67.4587 18.9137 2.14678e+17 1.7637e+14 0 5.78847e+16 5.48511e+16 0 
4676 0 34.3525 4.84701e+17 21759.6 1243.12 464.944 4167.16 40.6699 -1.56535 3.42581e+17 3.88014e+14 0 7.26292e+16 6.91018e+16 0 
8772 0 38.3425 5.40998e+17 22131.9 1429.07 485.16 3690.02 20.5784 15.146 3.69284e+17 2.11644e+14 0 9.06895e+16 8.08128e+16 0 
12868 0 27.3325 3.85651e+17 21184 1255.42 525.83 2640.01 76.5324 18.2196 2.48682e+17 1.7637e+14 0 7.06892e+16 6.61035e+16 0 
16964 0 31.925 4.50449e+17 19098.5 1318.88 568.699 2050.85 78.9219 6.97076 2.83004e+17 2.82192e+14 0 8.43402e+16 8.28234e+16 0 
5188 0 45.8275 6.46608e+17 21002.5 1651.32 551.312 3062.56 44.6791 13.8705 4.11119e+17 4.93837e+14 0 1.25188e+17 1.09808e+17 0 
9284 0 57.9725 8.1797e+17 19712.5 1577.41 623.3 2592.68 35.0362 -6.61485 5.05618e+17 8.46577e+14 0 1.59544e+17 1.51961e+17 0 
13380 0 39.4375 5.56448e+17 16971.1 1445.03 608.495 1689.15 88.8954 -5.11539 3.41065e+17 5.64385e+14 0 1.1203e+17 1.02789e+17 0 
17476 0 49.7375 7.01777e+17 14391.1 1397.3 625.806 1264.68 87.2831 -2.21097 4.17997e+17 6.70207e+14 0 1.48116e+17 1.34994e+17 0 
5700 0 24.4525 3.45015e+17 16724.9 1150.19 540.443 1476.08 92.6291 -19.7934 2.12632e+17 1.41096e+14 0 6.94899e+16 6.27525e+16 0 
9796 0 29.615 4.17856e+17 14377.9 1347.65 574.423 1140.09 103.952 17.5267 2.51645e+17 2.82192e+14 0 8.64919e+16 7.94371e+16 0 
13892 0 24.0225 3.38948e+17 16625.4 1196.49 526.014 1443.27 115.586 -0.170256 2.03178e+17 3.5274e+14 0 6.85727e+16 6.68443e+16 0 
17988 0 28.485 4.01912e+17 14143.5 1236.82 567.678 1089.91 134.821 -6.69636 2.43179e+17 2.82192e+14 0 8.31762e+16 7.52748e+16 0 
6212 0 37.2575 5.25689e+17 12524.7 1294.64 581.073 881.9 101.353 10.8313 3.14433e+17 4.93837e+14 0 1.09667e+17 1.01095e+17 0 
10308 0 48.6175 6.85974e+17 9667.87 1323.8 615.732 533.775 106.776 -0.997871 4.10731e+17 5.29111e+14 0 1.4861e+17 1.26105e+17 0 
14404 0 37.165 5.24384e+17 11556.4 1336.1 599.245 769.763 144.752 3.95346 3.11822e+17 4.23288e+14 0 1.09667e+17 1.02471e+17 0 
18500 0 46.8 6.6033e+17 9483.5 1315.92 592.031 516.417 144.779 12.1546 3.89778e+17 5.64385e+14 0 1.42401e+17 1.27586e+17 0 
4804 0 25.5775 3.60889e+17 19841.8 1216.97 551.749 2163.83 118.329 12.0046 2.3175e+17 3.5274e+14 0 6.53628e+16 6.34227e+16 0 
8900 0 30.275 4.27169e+17 18240.8 1274.58 535.38 1817.02 157.169 -7.57274 2.67271e+17 3.5274e+14 0 7.97546e+16 7.97899e+16 0 
12996 0 22.9475 3.2378e+17 19500.6 1272.7 519.891 2047.66 202.554 14.627 2.07764e+17 3.17466e+14 0 6.02128e+16 5.54861e+16 0 
17092 0 27.7375 3.91365e+17 17828.2 1212.58 546.566 1762.23 203.025 5.61498 2.42509e+17 7.05481e+13 0 7.97899e+16 6.8996e+16 0 
5316 0 35.8625 5.06006e+17 14667.2 1354.6 587.67 1249.15 184.168 -1.53816 3.0833e+17 2.82192e+14 0 1.04446e+17 9.29471e+16 0 
9412 0 46.315 6.53487e+17 13029.8 1312.33 599.751 1050.01 192.444 -4.02547 3.93023e+17 7.40755e+14 0 1.37745e+17 1.21978e+17 0 
13508 0 32.8975 4.64171e+17 15425 1355.24 577.946 1375.84 230.028 4.10924 2.84979e+17 2.46918e+14 0 9.41464e+16 8.47988e+16 0 
17604 0 40.9425 5.77683e+17 13117 1304.93 595.711 1057.56 236.269 -0.0998075 3.49425e+17 3.88014e+14 0 1.17145e+17 1.10725e+17 0 
4740 0 75.21 1.06118e+18 16451.9 1685.78 646.039 1883.67 46.1211 7.14438 6.31546e+17 4.93837e+14 0 2.16547e+17 2.12597e+17 0 
8836 0 103.415 1.45915e+18 12324.7 1759.29 693.361 1145.63 43.0929 0.0848993 8.48094e+17 1.48151e+15 0 3.27167e+17 2.82404e+17 0 
12932 0 68.5975 9.67884e+17 11125.1 1509.03 646.582 840.081 81.8401 0.373366 5.69005e+17 7.76029e+14 0 2.11503e+17 1.866e+17 0 
17028 0 100.905 1.42373e+18 8061.24 1465.31 668.412 484 95.4934 4.0378 8.30809e+17 1.7637e+15 0 3.27061e+17 2.64097e+17 0 
5764 0 65.845 9.29048e+17 7765.22 1315.35 637.924 356.377 124.566 2.21689 5.45054e+17 8.11303e+14 0 2.10939e+17 1.72243e+17 0 
9860 0 91.2425 1.2874e+18 5860.5 1279.27 618.812 187.749 137.884 -0.551046 7.66893e+17 1.02295e+15 0 2.85261e+17 2.3422e+17 0 
13956 0 62.555 8.82627e+17 7626.64 1252.38 603.534 337.155 159.339 0.955309 5.2576e+17 7.76029e+14 0 1.88081e+17 1.6801e+17 0 
18052 0 87.78 1.23854e+18 5988.72 1353.96 626.98 224.324 163.86 1.14846 7.39167e+17 1.23459e+15 0 2.71398e+17 2.26742e+17 0 
4868 0 58.865 8.30562e+17 10868.8 1356.81 603.289 793.469 192.641 -1.58444 5.01562e+17 6.34933e+14 0 1.76441e+17 1.51925e+17 0 
8964 0 79.1425 1.11667e+18 7481.47 1339.55 618.392 415.473 196.244 3.24409 6.78637e+17 1.26987e+15 0 2.35877e+17 2.00886e+17 0 
13060 0 52.6725 7.43189e+17 10380.9 1258.34 612.465 727.812 255.129 -0.67615 4.45511e+17 5.64385e+14 0 1.55629e+17 1.41484e+17 0 
17156 0 70.6275 9.96527e+17 8314.75 1304.95 639.606 526.11 239.143 3.05757 6.03433e+17 1.02295e+15 0 2.11856e+17 1.80215e+17 0 
193 0 24.4575 8.62715e+16 6485.23 226.305 156.388 6991.75 9.87796 1.49971 8.17564e+16 8.81851e+12 0 1.9048e+15 2.60146e+15 0 
5252 0 182.4 2.57359e+18 7437.68 1615.87 704.805 513.045 50.9385 7.27203 1.53978e+18 2.53973e+15 0 5.76025e+17 4.55247e+17 0 
84 1 34.595 1.22031e+17 17754.7 799 317.911 5472.32 244.898 0.558267 9.92964e+16 5.29111e+13 0 1.14817e+16 1.11995e+16 0 
148 1 35.545 1.25382e+17 17113.2 998.649 358.467 5389.14 306.05 -1.80523 1.00513e+17 9.70036e+13 0 1.26369e+16 1.21343e+16 0 
212 1 28.3375 9.99578e+16 12289.5 546.995 237.599 6302.73 174.391 -8.66553 8.79999e+16 8.81851e+12 0 5.6703e+15 6.27878e+15 0 
276 1 28.9225 1.02021e+17 12006.9 692.938 267.866 6264.67 210.907 1.03345 8.882e+16 5.29111e+13 0 6.61388e+15 6.53452e+15 0 
92 1 26.1225 9.21446e+16 8542 416.113 208.819 6724.92 124.98 -1.23471 8.45342e+16 8.81851e+12 0 3.77432e+15 3.82723e+15 0 
156 1 25.8775 9.12804e+16 7857.42 510.737 221.198 6769.11 137.541 -0.279271 8.40316e+16 3.5274e+13 0 3.56268e+15 3.65086e+15 0 
220 1 24.06 8.48693e+16 5713.8 345.37 179.933 7001.15 94.6335 1.18174 8.00368e+16 0 0 2.37218e+15 2.46036e+15 0 
284 1 24.6575 8.6977e+16 5170.78 345.085 187.103 7035.84 97.7269 1.07632 8.23208e+16 1.7637e+13 0 2.31045e+15 2.32809e+15 0 
588 1 37.105 2.61769e+17 21250 1238.12 509.73 2672.75 270.882 4.34295 1.75365e+17 2.82192e+14 0 4.48157e+16 4.13059e+16 0 
1612 1 28.59 2.01697e+17 22201.6 1063.78 473.123 3080.71 315.801 3.59581 1.38239e+17 1.58733e+14 0 3.25227e+16 3.07766e+16 0 
2124 1 35.0575 2.47324e+17 20616.2 1192.61 500.346 2663.52 367.902 -1.88746 1.66282e+17 1.58733e+14 0 4.30343e+16 3.7849e+16 0 
716 1 25.08 1.76935e+17 22460.9 904.902 405.019 4051.29 281.816 10.6781 1.2905e+17 1.7637e+14 0 2.51857e+16 2.25225e+16 0 
1228 1 27.365 1.93055e+17 22172 1039.94 430.417 3765.51 355.815 -7.00313 1.38715e+17 1.05822e+14 0 2.80076e+16 2.62262e+16 0 
1740 1 19.5875 1.38186e+17 21359.3 867.683 361.678 4638.47 283.982 4.06757 1.05046e+17 1.7637e+13 0 1.62084e+16 1.69139e+16 0 
2252 1 21.23 1.49774e+17 21458.1 1023.41 394.144 4355.01 337.399 -10.6147 1.12401e+17 5.29111e+13 0 1.92243e+16 1.80956e+16 0 
780 1 30.915 2.18099e+17 20966.5 1161.29 478.4 3476.69 424.144 -9.23413 1.51537e+17 1.05822e+14 0 3.4886e+16 3.15703e+16 0 
1804 1 22.4125 1.58116e+17 20842.3 1206.98 405.171 4188.38 401.162 -2.61201 1.15152e+17 8.81851e+13 0 2.16935e+16 2.11821e+16 0 
5828 1 20.7125 2.92245e+17 19080.4 1073.61 539.224 1949.3 216.662 -9.43414 1.83425e+17 1.41096e+14 0 5.53097e+16 5.33696e+16 0 
9924 1 25.28 3.56691e+17 17257 1246.87 556.07 1671.33 234.454 6.44414 2.22932e+17 2.82192e+14 0 6.90666e+16 6.44104e+16 0 
14020 1 19.2525 2.71645e+17 20335.4 1166.46 516.023 2195.72 237.806 -2.15076 1.79686e+17 1.05822e+14 0 4.74789e+16 4.43747e+16 0 
18116 1 21.74 3.06743e+17 18210.6 1209.97 504.81 1849.57 265.553 10.1307 1.92632e+17 2.82192e+14 0 6.03892e+16 5.34402e+16 0 
6340 1 29.6475 4.18315e+17 15623.3 1294.71 599.621 1397.74 249.335 2.92114 2.58982e+17 3.5274e+14 0 8.43755e+16 7.46046e+16 0 
10436 1 36.405 5.13661e+17 13079 1281.94 608.767 1042.25 275.228 -2.42672 3.08789e+17 4.23288e+14 0 1.10126e+17 9.43228e+16 0 
14532 1 26.595 3.75245e+17 15945.1 1319.96 569.238 1487.03 285.162 -0.0548094 2.32773e+17 5.99659e+14 0 7.54864e+16 6.63857e+16 0 
18628 1 31.5425 4.45053e+17 14126.3 1348.38 572.966 1216.31 313.362 -0.19305 2.7616e+17 5.29111e+14 0 9.01252e+16 7.82378e+16 0 
5196 1 23.9875 3.38454e+17 18190.6 1381.97 553.053 1956.51 318.841 3.14277 2.18664e+17 2.46918e+14 0 6.30347e+16 5.6509e+16 0 
9292 1 28.075 3.96127e+17 16985.8 1409.74 566.397 1768.96 339.378 -6.94752 2.50199e+17 3.5274e+14 0 7.73912e+16 6.81847e+16 0 
13388 1 21.3 3.00535e+17 19973.1 1280.88 513.373 2396.89 324.096 1.61874 1.97358e+17 2.46918e+14 0 5.37224e+16 4.92073e+16 0 
17484 1 23.28 3.28472e+17 18040.3 1276.65 559.901 2039.39 367.572 -1.23036 2.10304e+17 7.05481e+13 0 6.19412e+16 5.61563e+16 0 
4748 1 33.9675 4.79268e+17 14840.3 1310.04 586.909 1432.41 373.349 0.0250212 2.999e+17 4.23288e+14 0 9.83793e+16 8.05659e+16 0 
8844 1 39.7275 5.6054e+17 12699 1311.69 594.108 1148.24 401.364 5.9619 3.51929e+17 4.23288e+14 0 1.12418e+17 9.5769e+16 0 
12940 1 26.4425 3.73093e+17 16798 1347.45 601.929 1863.53 399.615 -0.291201 2.38382e+17 1.05822e+14 0 7.44282e+16 6.01775e+16 0 
17036 1 31.14 4.39373e+17 14994.3 1387.67 587.985 1573.56 452.759 -4.21056 2.77889e+17 2.11644e+14 0 8.68094e+16 7.44635e+16 0 
5772 1 21.52 3.03639e+17 17821.6 1387.26 562.54 2091.01 423.529 31.6684 1.95489e+17 2.11644e+14 0 5.80611e+16 4.98775e+16 0 
9868 1 23.685 3.34186e+17 15936.1 1370.26 596.44 1754.54 493.911 4.64611 2.16547e+17 1.41096e+14 0 6.18001e+16 5.56977e+16 0 
13964 1 18.2125 2.56971e+17 19606.9 1494.89 563.178 2543.69 435.681 1.79151 1.72173e+17 2.11644e+14 0 4.43747e+16 4.02124e+16 0 
18060 1 19.6775 2.77642e+17 18409.1 1473.16 580.724 2367.41 487.328 -0.0726547 1.83989e+17 3.88014e+14 0 5.00891e+16 4.31754e+16 0 
5892 1 46.1175 6.507e+17 10886.7 1282.94 592.279 788.421 300.323 4.78422 3.94223e+17 4.93837e+14 0 1.35946e+17 1.20038e+17 0 
9988 1 59.2875 8.36524e+17 7997.87 1298.27 613.26 473.188 304.918 4.11008 5.1172e+17 9.17125e+14 0 1.73478e+17 1.50408e+17 0 
14084 1 38.9375 5.49393e+17 11481.7 1305.52 602.384 889.455 337.087 1.84436 3.33869e+17 5.64385e+14 0 1.14888e+17 1.00072e+17 0 
18180 1 49.4925 6.9832e+17 10162.7 1377.24 600.534 785.854 347.285 -3.20561 4.24347e+17 3.88014e+14 0 1.46952e+17 1.26634e+17 0 
73 1 24.2675 8.56013e+16 6594.75 212.94 152.71 6977.98 15.6921 -4.21397 8.07775e+16 0 0 2.06353e+15 2.76019e+15 0 
137 1 26.04 9.18536e+16 8999.24 262.219 170.316 6766.46 21.2561 2.4857 8.479e+16 0 0 3.08648e+15 3.97715e+15 0 
201 1 24.0525 8.48429e+16 5175.38 187.146 158.828 7094.87 16.3821 0.494382 8.10245e+16 0 0 1.68434e+15 2.13408e+15 0 
265 1 24.5225 8.65008e+16 7232.49 240.296 163.461 6917 25.5033 -0.938417 8.10597e+16 0 0 2.43391e+15 3.00711e+15 0 
81 1 23.7275 8.36965e+16 4066.46 163.945 146.333 7183.08 13.3975 2.01007 8.07952e+16 0 0 1.1905e+15 1.71079e+15 0 
145 1 24.1775 8.52838e+16 5948.77 240.999 159.516 7028.44 25.9309 0.944276 8.09186e+16 0 0 1.78134e+15 2.58382e+15 0 
209 1 23.19 8.18005e+16 3205.06 175.509 147.267 7244.4 18.5359 -1.05233 7.94107e+16 0 0 9.87673e+14 1.40214e+15 0 
273 1 24.14 8.51515e+16 4507.01 208.399 155.041 7140.36 25.2137 1.49811 8.19857e+16 1.7637e+13 0 1.40214e+15 1.74606e+15 0 
89 1 23.2025 8.18446e+16 2536.55 162.662 146.369 7295.1 15.9394 1.70342 8.01338e+16 0 0 7.84847e+14 9.25943e+14 0 
153 1 23.345 8.23472e+16 3425.57 183.086 149.709 7227.94 18.6359 -0.38223 7.9684e+16 0 0 1.19932e+15 1.46387e+15 0 
217 1 22.93 8.08834e+16 2055.01 156.481 142.308 7333.8 10.4344 1.72894 7.94548e+16 0 0 6.61388e+14 7.6721e+14 0 
281 1 23.1225 8.15624e+16 2638.72 183.189 145.979 7286.55 19.9153 -1.59944 7.97546e+16 0 0 7.49573e+14 1.05822e+15 0 
74 1 26.9 9.48872e+16 12720.9 376.222 202.087 6383.9 43.3063 0.635754 8.41021e+16 2.64555e+13 0 4.74436e+15 6.01422e+15 0 
138 1 31.1075 1.09729e+17 17267.2 491.469 240.608 5779.7 75.0243 1.88664 9.1933e+16 4.40925e+13 0 8.63332e+15 9.11834e+15 0 
202 1 26.545 9.36349e+16 10524.8 364.564 189.791 6596.92 45.1323 -0.148902 8.50192e+16 8.81851e+12 0 3.91542e+15 4.69145e+15 0 
266 1 28.63 1.0099e+17 14328.5 424.512 215.011 6179.23 77.6622 -1.47537 8.85467e+16 8.81851e+12 0 5.83785e+15 6.59624e+15 0 
82 1 25.325 8.93315e+16 7870.84 273.828 171.193 6846.01 43.9318 -0.254855 8.30086e+16 0 0 2.9542e+15 3.36867e+15 0 
146 1 26.8375 9.46667e+16 11306.8 374.79 203.196 6497.91 71.9697 -0.523404 8.50986e+16 3.5274e+13 0 4.70908e+15 4.82372e+15 0 
210 1 24.15 8.51868e+16 6454.23 239.911 164.931 6974.56 39.3459 0.342814 8.07423e+16 1.7637e+13 0 2.12526e+15 2.30163e+15 0 
274 1 25.4675 8.98342e+16 8293.87 322.835 178.776 6810.47 67.6007 -3.10029 8.35995e+16 8.81851e+12 0 2.83074e+15 3.39513e+15 0 
90 1 23.835 8.40757e+16 4120.45 211.563 155.131 7168.57 29.9653 2.51237 8.1192e+16 8.81851e+12 0 1.22577e+15 1.64906e+15 0 
154 1 24.3125 8.576e+16 5483.1 280.733 172.064 7047.37 50.1119 0.69014 8.13948e+16 0 0 1.83425e+15 2.53091e+15 0 
218 1 23.29 8.21532e+16 2820.12 201.156 148.147 7264.26 22.8206 1.9652 7.99221e+16 0 0 8.55395e+14 1.37569e+15 0 
282 1 23.5 8.2894e+16 4163.94 250.138 154.725 7160.44 46.3369 0.217975 7.97546e+16 0 0 1.46387e+15 1.67552e+15 0 
83 1 28.6475 1.01051e+17 13992.7 476.656 228.472 6189.31 110.711 2.50721 8.87936e+16 4.40925e+13 0 6.13768e+15 6.07595e+15 0 
211 1 26.28 9.27002e+16 9872.3 349.224 199.487 6635.89 86.9003 -5.53772 8.43314e+16 2.64555e+13 0 3.9066e+15 4.43571e+15 0 
91 1 24.9125 8.78764e+16 6997.24 307.216 182.338 6907.56 73.1339 -2.40379 8.20298e+16 0 0 2.87483e+15 2.97184e+15 0 
219 1 24.095 8.49928e+16 4416.45 266.981 161.909 7135.31 51.4021 4.30713 8.13596e+16 1.7637e+13 0 1.53442e+15 2.08117e+15 0 
75 1 37.1925 1.31193e+17 21695.8 685.909 322.339 4893.67 128.615 -4.22526 1.02471e+17 1.7637e+13 0 1.43213e+16 1.4383e+16 0 
203 1 32.4425 1.14438e+17 18314.7 577.577 264.142 5563.45 131.981 3.8746 9.47372e+16 2.64555e+13 0 9.37408e+15 1.03e+16 0 
1731 1 17.8125 1.25664e+17 22962.5 684.332 323.437 4520.95 87.2059 -1.69156 9.42346e+16 1.7637e+14 0 1.46564e+16 1.65964e+16 0 
2243 1 21.515 1.51784e+17 23816.6 818.084 377.39 3956.59 126.162 1.04637 1.09967e+17 7.05481e+13 0 2.08999e+16 2.0847e+16 0 
267 1 38.8175 1.36925e+17 21419.4 835.285 337.308 4788.66 215.488 -1.83808 1.05884e+17 1.32278e+14 0 1.58821e+16 1.50267e+16 0 
147 1 30.815 1.08697e+17 16546.7 589.602 270.514 5801.15 170.583 4.55407 9.19153e+16 2.64555e+13 0 8.37758e+15 8.37758e+15 0 
275 1 27.375 9.65627e+16 11279.2 507.847 233.541 6454.93 124.723 -3.66046 8.60246e+16 3.5274e+13 0 5.4322e+15 5.07064e+15 0 
155 1 25.68 9.05837e+16 7642.7 386.702 185.151 6835.24 91.5656 2.01493 8.37406e+16 2.64555e+13 0 3.23639e+15 3.58031e+15 0 
283 1 24.35 8.58923e+16 5020.4 263.571 166.891 7075.71 64.4608 -1.36618 8.18181e+16 0 0 1.96653e+15 2.10762e+15 0 
651 1 25.2025 1.77799e+17 23161.5 912.326 405.413 3999.28 164.088 1.36659 1.28186e+17 3.5274e+13 0 2.49211e+16 2.46566e+16 0 
1163 1 30.5625 2.15613e+17 22953.3 1045.68 425.099 3390.52 218.563 2.24766 1.4935e+17 1.7637e+14 0 3.40218e+16 3.20641e+16 0 
1675 1 20.7775 1.46581e+17 22902.8 856.429 376.934 4208.23 198.048 19.1273 1.0785e+17 1.23459e+14 0 1.91891e+16 1.94184e+16 0 
2187 1 24.4325 1.72367e+17 23179.7 963.9 418.971 3710.1 248.227 3.64009 1.22542e+17 2.29281e+14 0 2.48858e+16 2.47095e+16 0 
1795 1 25.4375 1.79457e+17 23413.2 964.682 432.014 3270.08 164.375 -4.22631 1.23212e+17 1.7637e+14 0 2.78312e+16 2.82369e+16 0 
2307 1 32.1525 2.2683e+17 21374.2 1093.33 495.161 2522.99 201.002 -0.581423 1.48239e+17 1.94007e+14 0 3.99831e+16 3.84134e+16 0 
257 1 25.8575 9.12098e+16 9830.21 276.624 175.814 6684.55 12.9125 -0.233463 8.30527e+16 0 0 3.55386e+15 4.60326e+15 0 
194 1 28.615 1.00937e+17 14691.3 421.573 211.731 6154.78 29.6409 1.18634 8.74002e+16 1.7637e+13 0 6.50806e+15 7.01071e+15 0 
258 1 33.1475 1.16925e+17 19415 537.007 261.538 5461.73 55.8816 -2.26256 9.55662e+16 2.64555e+13 0 1.02647e+16 1.10672e+16 0 
1292 2 30.7075 2.16635e+17 19847.9 1389.65 509.077 3414.46 486.679 -5.11301 1.49721e+17 7.05481e+13 0 3.59619e+16 3.08824e+16 0 
2316 2 22.5875 1.5935e+17 20014.7 1230.7 456.044 4314.15 427.315 9.40607 1.1845e+17 7.05481e+13 0 2.09881e+16 1.98416e+16 0 
13444 2 164.412 2.3198e+18 5184.6 1398.71 655.222 205.783 120.104 -4.26596 1.40221e+18 1.48151e+15 0 5.1165e+17 4.04452e+17 0 
6276 2 142.792 2.01475e+18 3875.29 1214.76 617.673 42.3835 150.669 -2.91028 1.23639e+18 1.83425e+15 0 4.38844e+17 3.37678e+17 0 
14468 2 125.93 1.77682e+18 4334.26 1207.46 605.399 97.8094 154.453 1.99237 1.09325e+18 8.46577e+14 0 3.74751e+17 3.07978e+17 0 
5380 2 113.547 1.60211e+18 5139.2 1246.52 618.76 207.369 180.89 2.51152 9.83405e+17 1.23459e+15 0 3.405e+17 2.76972e+17 0 
9476 2 183.7 2.59194e+18 3562.54 1134.86 594.631 108.102 148.161 -3.96525 1.62807e+18 1.41096e+15 0 5.54049e+17 4.08403e+17 0 
13572 2 99.8225 1.40846e+18 5987.58 1302.47 622.437 296.852 233.45 -1.74636 8.62838e+17 1.0935e+15 0 3.05156e+17 2.3937e+17 0 
17668 2 156.435 2.20724e+18 4159.73 1167.62 602.374 159.959 200.111 -0.16233 1.39763e+18 2.61028e+15 0 4.5955e+17 3.47449e+17 0 
6404 2 82.5375 1.16457e+18 6590.35 1268.97 617.996 360.952 294.979 0.164025 7.21213e+17 1.41096e+15 0 2.44731e+17 1.97217e+17 0 
10500 2 122.032 1.72183e+18 4665.86 1185.58 610.333 207.363 270.224 2.98411 1.09134e+18 1.0935e+15 0 3.56127e+17 2.73268e+17 0 
14596 2 64.3025 9.07283e+17 8045.66 1266.89 609.737 544.373 367.557 1.52576 5.71686e+17 5.29111e+14 0 1.85506e+17 1.49562e+17 0 
18692 2 87.3025 1.2318e+18 6461.45 1279.17 628.611 436.468 347.806 -2.21644 7.77016e+17 2.25754e+15 0 2.60781e+17 1.9175e+17 0 
5260 2 48.9325 6.90419e+17 10883.5 1342.07 609.143 966.656 420.586 5.23914 4.38209e+17 3.88014e+14 0 1.41802e+17 1.1002e+17 0 
9356 2 58.1 8.19769e+17 9629.46 1474.53 652.978 911.015 456.536 1.39486 5.17258e+17 7.05481e+14 0 1.73337e+17 1.28468e+17 0 
13452 2 35.95 5.07241e+17 14039.6 1546.83 612.627 1514.39 481.243 -0.298209 3.25615e+17 3.88014e+14 0 1.00002e+17 8.12361e+16 0 
17548 2 39.715 5.60363e+17 12286.7 1449.53 620.705 1373.46 517.215 9.13084 3.5468e+17 3.5274e+14 0 1.12066e+17 9.32646e+16 0 
6284 2 26.1075 3.68367e+17 15466.9 1518.67 587.734 1866.25 510.992 3.3785 2.31115e+17 2.46918e+14 0 7.21707e+16 6.48337e+16 0 
10380 2 27.855 3.93023e+17 15237.7 1571.65 601.751 1930.14 548.762 12.7311 2.55102e+17 2.46918e+14 0 7.3758e+16 6.39166e+16 0 
14476 2 20.1925 2.84908e+17 17976.4 1280.82 614.451 2435.13 518.66 2.1689 1.89633e+17 3.17466e+14 0 5.04066e+16 4.45511e+16 0 
18572 2 20.3325 2.86884e+17 17197.7 1575.37 561.515 2472.15 534.646 -21.5564 1.87023e+17 1.7637e+14 0 5.40751e+16 4.56093e+16 0 
9348 2 486.267 6.86105e+18 2805.6 1232.35 618.66 72.9383 53.8276 -3.44175 4.50026e+18 6.2435e+15 0 1.3614e+18 9.9314e+17 0 
17540 2 351.91 4.96531e+18 2611.68 1129.62 597.81 37.0821 106.394 -2.76544 3.19389e+18 4.23288e+15 0 1.03607e+18 7.31125e+17 0 
8 3 8.9625 1.58072e+16 8102.89 3523.36 1010.94 4805.31 -165.533 -10.9853 9.5769e+15 4.40925e+12 0 3.40835e+15 2.81751e+15 0 
7 3 8.0825 1.42551e+16 9026.25 3893.66 1078.57 4431.31 -333.188 3.5957 8.73473e+15 0 0 2.95861e+15 2.56178e+15 0 
80 3 25.6475 9.04691e+16 5062.78 1452.47 458.192 6467.37 22.3319 -2.20155 7.14476e+16 1.7637e+13 0 9.85909e+15 9.14479e+15 0 
144 3 23.5025 8.29028e+16 4821.19 1462.35 454.619 6520.81 10.8683 1.64757 6.54422e+16 3.5274e+13 0 9.29471e+15 8.13067e+15 0 
208 3 28.4825 1.00469e+17 4582.48 1306.27 406.884 6619.68 111.329 -2.76576 8.14918e+16 8.81851e+12 0 9.93846e+15 9.03015e+15 0 
272 3 28.2375 9.96051e+16 4280.03 1273.87 390.315 6690.5 100.376 -5.00332 8.2312e+16 6.17296e+13 0 9.11834e+15 8.11303e+15 0 
88 3 27.6425 9.75063e+16 4070.45 1107.61 345.482 6827.88 140.326 2.44237 8.46048e+16 2.64555e+13 0 7.01953e+15 5.85549e+15 0 
152 3 27.22 9.60159e+16 3899.86 1066.99 329.732 6847.3 130.922 -7.38635 8.37229e+16 3.5274e+13 0 6.77262e+15 5.48511e+15 0 
216 3 25.82 9.10776e+16 3478.18 792.195 286.09 6984.38 135.407 2.13137 8.23472e+16 2.64555e+13 0 4.55035e+15 4.15352e+15 0 
280 3 26.225 9.25062e+16 3215.09 786.938 280.439 7014.48 128.69 -0.442116 8.38817e+16 8.81851e+12 0 4.67381e+15 3.94187e+15 0 
96 3 24.8875 8.77883e+16 2881.52 634.396 251.152 7116.11 125.531 4.60855 8.20298e+16 8.81851e+12 0 3.16584e+15 2.58382e+15 0 
160 3 25.545 9.01075e+16 2730.02 651.258 233.054 7125.1 122.555 -0.956103 8.39522e+16 8.81851e+12 0 3.31576e+15 2.83074e+15 0 
224 3 24.2975 8.57071e+16 2478.99 511.083 208.254 7195.72 108.424 -1.92043 8.15536e+16 2.64555e+13 0 2.31927e+15 1.80779e+15 0 
288 3 24.2325 8.54778e+16 2208.04 480.837 211.253 7214.68 108.279 2.61428 8.12978e+16 0 0 2.34572e+15 1.83425e+15 0 
79 3 28.1 9.912e+16 5854.69 1891.36 541.623 6211.46 44.2034 0.375955 7.29908e+16 6.17296e+13 0 1.37833e+16 1.22842e+16 0 
143 3 26.5775 9.37496e+16 5507.22 1663.5 488.895 6324.85 33.8506 -0.288646 7.17562e+16 1.7637e+13 0 1.17992e+16 1.01766e+16 0 
207 3 30.6875 1.08247e+17 5462.51 1519.96 440.315 6477.87 163.983 2.05731 8.68359e+16 4.40925e+13 0 1.11995e+16 1.01677e+16 0 
271 3 29.665 1.0464e+17 5057.01 1397.3 432.288 6541.46 132.867 2.55913 8.40139e+16 4.40925e+13 0 1.0882e+16 9.70036e+15 0 
87 3 28.0625 9.89878e+16 5102.59 1152.61 330.804 6705.58 175.828 8.49773 8.47106e+16 3.5274e+13 0 7.65447e+15 6.58743e+15 0 
151 3 27.785 9.80089e+16 4389.62 1140.97 344.705 6794.19 153.979 0.0367256 8.4402e+16 2.64555e+13 0 7.20472e+15 6.37578e+15 0 
215 3 26.705 9.41993e+16 4460.89 848.287 287.856 6906.29 165.327 5.05119 8.52662e+16 3.5274e+13 0 4.92073e+15 3.97715e+15 0 
279 3 26.395 9.31058e+16 3836 907.113 275.513 6949.47 158.319 -4.96543 8.41286e+16 2.64555e+13 0 4.81491e+15 4.13588e+15 0 
95 3 25.195 8.88729e+16 3590.51 604.64 227.841 7061.59 129.203 6.05984 8.28675e+16 0 0 3.41276e+15 2.59264e+15 0 
159 3 25.545 9.01075e+16 3325.16 632.493 246.001 7078.89 139.704 3.12938 8.37935e+16 2.64555e+13 0 3.50095e+15 2.78665e+15 0 
223 3 24.595 8.67565e+16 2884.55 493.955 209.404 7176.31 114.352 -3.92308 8.26912e+16 8.81851e+12 0 2.22226e+15 1.83425e+15 0 
287 3 24.11 8.50457e+16 2678.07 497.167 204.384 7189.27 119.368 -1.8157 8.061e+16 0 0 2.20463e+15 2.23108e+15 0 
142 3 30.595 1.07921e+17 6384.2 1889.62 569.075 6086.94 68.8936 -6.04737 7.81408e+16 5.29111e+13 0 1.54412e+16 1.4286e+16 0 
270 3 31.4575 1.10963e+17 6287.19 1455.2 467.019 6366.06 185.7 4.09295 8.80705e+16 1.7637e+13 0 1.19226e+16 1.09526e+16 0 
150 3 28.8075 1.01616e+17 5771.26 1122.09 360.249 6663.03 207.141 2.53521 8.71621e+16 2.64555e+13 0 7.79556e+15 6.63152e+15 0 
278 3 27.24 9.60865e+16 5268.48 884.844 294.11 6841.8 185.887 2.07597 8.6342e+16 8.81851e+12 0 5.16765e+15 4.56799e+15 0 
158 3 25.295 8.92257e+16 4528.81 616.456 239.109 6989.99 160.81 6.99062 8.25677e+16 1.7637e+13 0 3.59795e+15 3.04239e+15 0 
286 3 24.5125 8.64655e+16 3431.7 457.518 198.789 7133.7 119.037 1.13313 8.17299e+16 3.5274e+13 0 2.66319e+15 2.03708e+15 0 
94 3 25.555 9.01428e+16 5283.79 586.445 227.775 6936.05 169.832 -2.08863 8.30439e+16 0 0 3.77432e+15 3.32458e+15 0 
222 3 24.2425 8.55131e+16 3934.04 445.116 207.575 7101.19 120.688 0.804409 8.0998e+16 0 0 2.22226e+15 2.29281e+15 0 
6 3 6.3775 1.21157e+16 9581.81 3481.8 998.501 3751.04 -593.94 -43.6591 6.95312e+15 0 0 2.69766e+15 2.46494e+15 0 
206 3 33.575 1.18433e+17 8031.82 1690.65 510.185 6122.66 250.652 1.0642 9.35115e+16 2.64555e+13 0 1.37128e+16 1.11819e+16 0 
86 3 29.7725 1.0502e+17 7738.8 1309.25 383.167 6426.39 263.241 3.95039 8.88288e+16 0 0 8.81851e+15 7.37227e+15 0 
214 3 27.845 9.82206e+16 6659.67 884.099 289.324 6702.09 211.724 -6.16163 8.71092e+16 1.7637e+13 0 6.15532e+15 4.93837e+15 0 
1165 3 18.3325 1.29332e+17 8041.88 2416.45 686.368 5518.82 66.0222 5.98716 8.53279e+16 3.5274e+13 0 2.31574e+16 2.08117e+16 0 
2189 3 19.7525 1.3935e+17 9171.93 2431.29 608.376 5530.17 244.487 -2.72654 9.6739e+16 8.81851e+13 0 2.34749e+16 1.9048e+16 0 
1293 3 19.23 1.35664e+17 10114 1884.14 534.978 5727.85 304.049 3.67047 1.02242e+17 3.5274e+13 0 1.83249e+16 1.5062e+16 0 
2317 3 16.935 1.19473e+17 10583.8 1516.85 477.384 5899.63 328.194 3.703 9.45168e+16 5.29111e+13 0 1.37569e+16 1.11466e+16 0 
590 3 17.075 1.20461e+17 7557.77 2219.82 647.614 5771.86 17.2543 -4.24538 8.42697e+16 1.41096e+14 0 1.91185e+16 1.69315e+16 0 
1102 3 14.835 1.04658e+17 6901.17 1981.1 575.542 5937.57 7.35118 10.4613 7.30878e+16 3.5274e+13 0 1.65964e+16 1.49386e+16 0 
1614 3 17.7525 1.2524e+17 7931.32 2101.21 685.946 5754.02 189.853 -2.04124 8.78147e+16 7.05481e+13 0 2.04413e+16 1.69139e+16 0 
2126 3 17.04 1.20214e+17 7150.39 2019.88 612.842 5891.08 144.888 0.157564 8.49222e+16 3.5274e+13 0 1.8466e+16 1.67904e+16 0 
5 3 167.433 2.86343e+18 2885.53 1004.32 576.89 103.563 188.807 1.31671 1.90003e+18 2.82183e+15 0 5.62784e+17 3.97793e+17 0 
5 3 2.215 1.57198e+16 8692.18 3041.13 983.824 2456.27 -625.529 66.989 8.40989e+15 1.77424e+13 0 4.34689e+15 2.94524e+15 0 
85 3 34.0375 1.20064e+17 14650.6 1223.1 385.056 5630.8 338.637 -1.18667 9.70124e+16 5.29111e+13 0 1.24606e+16 1.05381e+16 0 
149 3 31.6625 1.11686e+17 10743.2 1251.54 372.07 6124.9 306.556 -0.0185932 9.26561e+16 3.5274e+13 0 1.0106e+16 8.88906e+15 0 
213 3 28.945 1.02101e+17 10518.3 778.783 283.479 6386.15 224.709 -1.86789 8.95255e+16 2.64555e+13 0 6.64034e+15 5.9084e+15 0 
277 3 27.77 9.7956e+16 8477.88 855.913 296.192 6546.52 225.784 -0.0506847 8.62627e+16 4.40925e+13 0 5.94368e+15 5.70558e+15 0 
93 3 26.055 9.19065e+16 7054.91 489.707 233.822 6819.34 156.854 3.85464 8.47371e+16 3.5274e+13 0 3.55386e+15 3.58031e+15 0 
157 3 25.89 9.13245e+16 6541.25 609.281 238.686 6826.86 171.13 -1.26011 8.33525e+16 1.7637e+13 0 4.17115e+15 3.78314e+15 0 
221 3 24.86 8.76913e+16 5256.09 380.855 187.539 7020.06 117.159 5.48722 8.25501e+16 1.7637e+13 0 2.56619e+15 2.55737e+15 0 
285 3 24.5375 8.65537e+16 4580.84 476.404 198.412 7056.01 121.644 -2.8855 8.18358e+16 8.81851e+12 0 2.55737e+15 2.15172e+15 0 
2125 3 30.735 2.1683e+17 15582.8 2122.81 651.923 3758.85 511.059 -5.41829 1.47357e+17 7.05481e+13 0 3.88191e+16 3.05826e+16 0 
653 3 21.2175 1.49685e+17 9607.99 2440.19 754.787 5101.77 116.082 13.7014 9.75503e+16 7.05481e+13 0 2.76019e+16 2.44625e+16 0 
1677 3 21.8975 1.54483e+17 12076.4 2420.33 690.965 4919.95 359.989 6.16656 1.06069e+17 8.81851e+13 0 2.73374e+16 2.09881e+16 0 
717 3 28.8725 2.0369e+17 18537.9 1585.37 556.595 3783.99 511.421 1.09784 1.43442e+17 1.05822e+14 0 3.23639e+16 2.77783e+16 0 
1229 3 24.42 1.72278e+17 16295.6 1834.16 546.365 4504.35 492.031 2.8204 1.23441e+17 8.81851e+13 0 2.56971e+16 2.30516e+16 0 
1741 3 22.3525 1.57693e+17 18371.2 1412.42 473.686 4556.22 443.868 6.3871 1.16792e+17 7.05481e+13 0 2.15877e+16 1.9242e+16 0 
2253 3 19.48 1.37428e+17 15902.3 1518.5 515.004 5043.38 429.138 7.84808 1.03018e+17 1.23459e+14 0 1.87482e+16 1.55382e+16 0 
781 3 21.2275 1.49756e+17 13227.7 1942.89 564.036 5231.13 402.266 -4.34569 1.1226e+17 7.05481e+13 0 2.06e+16 1.68257e+16 0 
1805 3 17.7925 1.25523e+17 13108.5 1608.64 452.982 5475.44 398.45 6.19293 9.55574e+16 1.05822e+14 0 1.58204e+16 1.40391e+16 0 
4685 3 68.845 9.71376e+17 7915.92 1307.6 628.638 783.524 456.056 1.96983 6.22481e+17 5.29111e+14 0 1.95912e+17 1.52454e+17 0 
8781 3 67.4125 9.51164e+17 8034.17 1443.99 653.793 1036.8 454.128 2.76944 6.2301e+17 4.23288e+14 0 1.88187e+17 1.39544e+17 0 
12877 3 40.465 5.70946e+17 11665.9 1600.06 636.051 1452.94 547.838 -4.00038 3.64734e+17 3.88014e+14 0 1.1524e+17 9.05837e+16 0 
16973 3 34.985 4.93625e+17 12171.1 1721.09 694.699 1833.93 561.695 10.5187 3.20394e+17 3.17466e+14 0 9.30882e+16 7.98251e+16 0 
5197 3 23.825 3.41361e+17 13389.4 2002.17 728.234 2719.57 320.525 -6.27395 2.25484e+17 3.58196e+13 0 6.82722e+16 4.75684e+16 0 