ITEM: TIMESTEP
16000
ITEM: NUMBER OF CELLS
246
ITEM: BOX BOUNDS oo ao pp
-10 10
0 10
-0.5 0.5
ITEM: CELLS id proc f_avg_n f_avg_nrho f_avg_temp_tra f_avg_temp_rot f_avg_temp_vib f_avg_vel[1] f_avg_vel[2] f_avg_vel[3] f_avg_nrho_CO2 f_avg_nrho_O2 f_avg_nrho_C2 f_avg_nrho_CO f_avg_nrho_O f_avg_nrho_C 
65 0 24.55 8.65978e+16 6194.2 199.246 156.389 7009.88 11.8505 1.95809 8.19533e+16 1.1758e+13 0 1.92831e+15 2.70434e+15 0 
129 0 26.81 9.45697e+16 10167.5 325.519 184.321 6646.85 17.667 1.21547 8.54337e+16 0 0 4.033e+15 5.10298e+15 0 
66 0 29.51 1.04094e+17 13975.2 399 210.996 6235.68 29.4945 -9.87694 9.09247e+16 2.3516e+13 0 5.84373e+15 7.30173e+15 0 
130 0 34.8233 1.22836e+17 19016.3 535.714 271.769 5507.84 23.9007 0.173462 1.00084e+17 2.3516e+13 0 1.07821e+16 1.19461e+16 0 
579 0 29.7 2.09528e+17 16727.2 525.259 265.145 5788.83 42.3828 -10.3024 1.72537e+17 0 0 1.67199e+16 2.02708e+16 0 
1091 0 32.18 2.27024e+17 19462.8 749.342 303.045 5353.24 64.8819 9.52201 1.81614e+17 2.3516e+13 0 2.1235e+16 2.4151e+16 0 
1603 0 17.7633 1.25317e+17 23999.2 704.241 355.214 4086.03 47.9218 -2.81486 9.15244e+16 4.7032e+13 0 1.6179e+16 1.75665e+16 0 
2115 0 22.0633 1.55653e+17 23842.1 810.948 411.749 3337.66 64.1023 -2.79471 1.06575e+17 2.3516e+13 0 2.37512e+16 2.53032e+16 0 
707 0 21.6 1.52384e+17 21647.3 686.945 292.583 4942.34 68.8972 -0.820956 1.1758e+17 4.7032e+13 0 1.61085e+16 1.86482e+16 0 
1219 0 24.0833 1.69903e+17 23582.3 800.782 349.061 4197.12 87.6532 4.89765 1.25035e+17 2.3516e+13 0 2.17053e+16 2.31398e+16 0 
643 0 38.8267 2.73915e+17 21565.9 906.693 352.149 4738.42 68.12 -20.8091 2.03555e+17 4.7032e+13 0 3.60501e+16 3.42628e+16 0 
1667 0 28.0433 1.9784e+17 21915.1 1090.72 463.707 2573.5 61.7303 -12.3326 1.26281e+17 7.05481e+13 0 3.55562e+16 3.59325e+16 0 
2179 0 37.1567 2.62133e+17 19299.5 1181.94 516.512 1934.05 87.2079 -2.52351 1.62919e+17 2.58676e+14 0 4.9948e+16 4.90074e+16 0 
771 0 30.4667 2.14936e+17 23549.5 939.647 416.844 3650.24 106.164 -6.0402 1.51561e+17 1.64612e+14 0 3.03592e+16 3.28519e+16 0 
1283 0 38.5167 2.71728e+17 21991.7 1148.78 479.673 2796.55 126.629 -9.91585 1.7891e+17 1.88128e+14 0 4.59503e+16 4.66793e+16 0 
5251 0 28.4333 4.01183e+17 18320.1 981.168 367.713 5344.23 57.3886 -13.0554 3.13892e+17 9.40641e+13 0 4.20937e+16 4.51037e+16 0 
9347 0 30.06 4.24135e+17 21461.4 961.383 408.424 4620.86 48.0734 24.3064 3.12904e+17 3.29224e+14 0 5.40398e+16 5.68617e+16 0 
13443 0 20.2033 2.85061e+17 22965.6 1035.61 455.532 3499.99 45.968 -16.187 1.93631e+17 1.41096e+14 0 4.44923e+16 4.67969e+16 0 
17539 0 22.8067 3.21793e+17 22242.1 1086.99 497.646 2928.75 69.7346 25.5762 2.1362e+17 4.7032e+13 0 5.64385e+16 5.16882e+16 0 
4676 0 34.97 4.93413e+17 21799 1295.8 470.66 4175.49 51.2966 -9.34204 3.48178e+17 3.29224e+14 0 7.36052e+16 7.13006e+16 0 
8772 0 38.3267 5.40774e+17 22023.2 1345.71 479.902 3825.05 57.9893 20.0766 3.70189e+17 2.3516e+14 0 9.15714e+16 7.87787e+16 0 
12868 0 27.6067 3.89519e+17 21498.1 1284.22 530.084 2723.71 68.2853 12.0112 2.5275e+17 1.41096e+14 0 6.95604e+16 6.70677e+16 0 
16964 0 32.1633 4.53812e+17 19145.1 1248.15 568.688 2033.03 66.4062 14.2272 2.85155e+17 1.41096e+14 0 8.58805e+16 8.26353e+16 0 
5188 0 44.8233 6.3244e+17 21080.1 1643.99 559.352 3010.96 39.9344 19.2258 4.04146e+17 6.11417e+14 0 1.22142e+17 1.0554e+17 0 
9284 0 58.8133 8.29833e+17 19896.1 1539.63 634.269 2659.31 36.3473 -6.93391 5.12132e+17 9.40641e+14 0 1.61555e+17 1.55206e+17 0 
13380 0 39.8733 5.62597e+17 17297.6 1486.95 597.886 1757.96 91.8792 -5.91929 3.44745e+17 6.58449e+14 0 1.12689e+17 1.04505e+17 0 
17476 0 49.77 7.02236e+17 14326.1 1382.98 640.193 1242.98 89.2593 -2.25816 4.17456e+17 7.52513e+14 0 1.48762e+17 1.35264e+17 0 
5700 0 24.3533 3.43616e+17 16766 1172.55 535.091 1476.85 84.9097 -24.9789 2.13667e+17 9.40641e+13 0 6.91841e+16 6.06713e+16 0 
9796 0 29.3233 4.13741e+17 14391 1305.77 576.417 1134.63 94.6187 17.3475 2.49928e+17 2.3516e+14 0 8.77618e+16 7.58157e+16 0 
13892 0 24.01 3.38772e+17 16834.2 1177.66 538.797 1481.8 116.903 2.94153 2.03037e+17 3.76256e+14 0 6.98896e+16 6.54686e+16 0 
17988 0 28.27 3.98879e+17 14285.7 1262.03 575.399 1105.53 135.915 -4.36252 2.42497e+17 3.76256e+14 0 8.20709e+16 7.39344e+16 0 
6212 0 36.77 5.18811e+17 12431.5 1322.63 592.238 872.183 103.658 -0.801058 3.10506e+17 3.29224e+14 0 1.07656e+17 1.00319e+17 0 
10308 0 48.59 6.85586e+17 9542.56 1362.65 614.853 523.642 103.014 -3.5123 4.07721e+17 4.7032e+14 0 1.49327e+17 1.28068e+17 0 
14404 0 37.1567 5.24266e+17 11571.9 1348.57 591.354 768.493 147.39 -1.92809 3.11587e+17 2.82192e+14 0 1.10525e+17 1.01871e+17 0 
18500 0 46.6533 6.58261e+17 9271.55 1300.6 595.678 492.197 144.585 5.36216 3.89002e+17 4.7032e+14 0 1.4072e+17 1.28068e+17 0 
4804 0 25.3267 3.5735e+17 19737.7 1219.47 560.682 2141.33 114.618 13.1792 2.28576e+17 3.76256e+14 0 6.49513e+16 6.34462e+16 0 
8900 0 30.0433 4.239e+17 17925.7 1266.55 548.797 1749.47 166.696 -8.04782 2.6385e+17 2.82192e+14 0 7.9202e+16 8.05659e+16 0 
12996 0 23.0367 3.25038e+17 19343.5 1338.99 528.815 2009.29 209.572 11.8208 2.08681e+17 3.29224e+14 0 5.92604e+16 5.67677e+16 0 
17092 0 27.8167 3.92482e+17 17668.4 1174.65 547.941 1737.47 205.256 2.52818 2.41274e+17 4.7032e+13 0 8.09892e+16 7.01718e+16 0 
5316 0 35.97 5.07523e+17 14860.4 1344.78 597.025 1266.39 184.389 -1.27769 3.08718e+17 2.82192e+14 0 1.03659e+17 9.48636e+16 0 
9412 0 46.52 6.56379e+17 13114.7 1311.22 603.487 1060.09 194.439 -5.10897 3.93846e+17 5.17353e+14 0 1.39826e+17 1.22189e+17 0 
13508 0 32.6833 4.61149e+17 15430.8 1339.56 564.482 1357.88 236.046 3.81416 2.81863e+17 1.88128e+14 0 9.45344e+16 8.45636e+16 0 
17604 0 40.9433 5.77695e+17 13236 1290.62 585.14 1057.04 237.072 0.391559 3.49777e+17 4.7032e+14 0 1.17016e+17 1.10431e+17 0 
4740 0 75.3633 1.06335e+18 16257.1 1667.22 653.157 1845.22 49.3703 5.58622 6.37425e+17 4.7032e+14 0 2.11691e+17 2.13761e+17 0 
8836 0 102.83 1.45089e+18 12248.7 1760.01 692.664 1124.07 43.6529 -1.47997 8.46859e+17 1.22283e+15 0 3.22075e+17 2.80734e+17 0 
12932 0 68.5433 9.6712e+17 11257.8 1511.6 635.623 857.575 86.6245 -7.5254 5.64385e+17 6.58449e+14 0 2.13431e+17 1.88646e+17 0 
17028 0 101.143 1.42709e+18 8176.09 1452.98 672.275 494.685 92.4878 -0.622005 8.32796e+17 1.12877e+15 0 3.27672e+17 2.65496e+17 0 
5764 0 66.1533 9.33398e+17 7686.63 1338.04 646.326 352.121 124.422 2.27904 5.48159e+17 7.99545e+14 0 2.07458e+17 1.76982e+17 0 
9860 0 90.8733 1.28219e+18 6051.24 1302.52 625.693 216.686 139.818 -1.34995 7.65164e+17 9.87673e+14 0 2.797e+17 2.36336e+17 0 
13956 0 62.43 8.80863e+17 7418.95 1271.71 607.408 313.441 152.993 -3.45442 5.27653e+17 6.58449e+14 0 1.87705e+17 1.64847e+17 0 
18052 0 86.37 1.21865e+18 6198.49 1368.89 626.532 250.725 167.974 -1.02867 7.27727e+17 1.3169e+15 0 2.64602e+17 2.25001e+17 0 
4868 0 59.07 8.33455e+17 11041.1 1378.19 610.566 817.608 189.2 -2.50833 5.06958e+17 5.17353e+14 0 1.7543e+17 1.5055e+17 0 
8964 0 78.9433 1.11386e+18 7534.99 1364.88 614.046 421.211 198.057 2.57374 6.79989e+17 1.3169e+15 0 2.31586e+17 2.00968e+17 0 
13060 0 52.3833 7.39109e+17 10212.4 1268.46 609.81 707.88 255.819 -0.24936 4.41584e+17 4.23288e+14 0 1.55864e+17 1.41237e+17 0 
17156 0 70.8667 9.99901e+17 8044.45 1290.97 639.244 490.26 239.141 -0.373333 6.04973e+17 1.08174e+15 0 2.12538e+17 1.81309e+17 0 
193 0 24.3933 8.60451e+16 6473.94 228.568 156.548 6991.18 8.59595 1.44212 8.13772e+16 1.1758e+13 0 1.84601e+15 2.81016e+15 0 
5252 0 184.117 2.59782e+18 7437.03 1604.49 701.809 510.032 49.7747 11.4042 1.56161e+18 2.72786e+15 0 5.77836e+17 4.55646e+17 0 
84 1 34.6533 1.22236e+17 17711.1 793.125 322.976 5482.4 244.78 1.18282 9.94728e+16 4.7032e+13 0 1.12171e+16 1.14993e+16 0 
148 1 35.6933 1.25905e+17 17101.1 940.337 354.634 5400.68 303.257 -2.55976 1.00637e+17 9.40641e+13 0 1.29573e+16 1.22166e+16 0 
212 1 28.26 9.96844e+16 12138.2 539.751 233.931 6319.92 173.702 -9.40393 8.75737e+16 1.1758e+13 0 5.74967e+15 6.34933e+15 0 
276 1 28.96 1.02154e+17 12003.1 682.587 265.921 6261.69 209.413 -0.030687 8.90317e+16 3.5274e+13 0 6.64328e+15 6.44339e+15 0 
92 1 26.1033 9.2077e+16 8535.97 415.433 214.681 6720.81 127.287 -0.142086 8.4352e+16 0 0 3.92718e+15 3.79784e+15 0 
156 1 25.73 9.07601e+16 7785.79 525.348 223.352 6774.57 138.207 -2.44193 8.32938e+16 2.3516e+13 0 3.6685e+15 3.77432e+15 0 
220 1 24.07 8.49046e+16 5515.06 357.169 175.788 7018.67 90.8759 -0.645826 8.00721e+16 0 0 2.33984e+15 2.4927e+15 0 
284 1 24.6233 8.68564e+16 5244.97 333.051 185.789 7030.05 100.202 0.842906 8.22003e+16 1.1758e+13 0 2.30457e+15 2.33984e+15 0 
588 1 37.19 2.62368e+17 21269.4 1296.99 495.139 2710.38 270.562 7.41454 1.75265e+17 3.5274e+14 0 4.51273e+16 4.16234e+16 0 
1612 1 28.6467 2.02097e+17 22131.4 1096.5 490.201 3072.89 318.721 4.60023 1.38392e+17 1.64612e+14 0 3.27813e+16 3.0759e+16 0 
2124 1 35.2933 2.48988e+17 20592.9 1177.94 503.221 2654.81 367.937 -7.16707 1.67622e+17 1.64612e+14 0 4.30343e+16 3.81665e+16 0 
716 1 25.0167 1.76488e+17 22430.2 885.152 401.076 4058.71 277.934 12.9765 1.28633e+17 2.3516e+14 0 2.52327e+16 2.23873e+16 0 
1228 1 27.4967 1.93984e+17 22230.8 1048.25 418.355 3779.52 354.21 -4.9386 1.39709e+17 1.1758e+14 0 2.789e+16 2.62674e+16 0 
1740 1 19.4267 1.37051e+17 21339.2 843.215 377.902 4619.86 290.528 3.8743 1.04058e+17 2.3516e+13 0 1.66493e+16 1.63201e+16 0 
2252 1 21.08 1.48715e+17 21384.3 1048.99 408.548 4327.67 340.825 -11.2364 1.10596e+17 2.3516e+13 0 1.95888e+16 1.85071e+16 0 
780 1 30.5367 2.1543e+17 20949.4 1150.75 472.828 3463.38 422.027 -1.79977 1.49186e+17 4.7032e+13 0 3.45686e+16 3.16291e+16 0 
1804 1 22.2833 1.57205e+17 20849.1 1235.49 409.117 4170.52 402.192 -8.79488 1.14076e+17 7.05481e+13 0 2.20345e+16 2.10233e+16 0 
5828 1 20.7333 2.92539e+17 19120.1 1026.23 545.411 1956.29 205.555 -11.8667 1.83801e+17 0 0 5.49334e+16 5.38047e+16 0 
9924 1 24.8767 3.51e+17 16980.3 1328.66 556.306 1633.34 245.142 3.49588 2.19781e+17 2.3516e+14 0 6.98426e+16 6.11417e+16 0 
14020 1 19.2367 2.71422e+17 20484.9 1158.29 511.515 2218.48 222.315 1.17044 1.80086e+17 9.40641e+13 0 4.77846e+16 4.34576e+16 0 
18116 1 21.8867 3.08812e+17 18175.2 1212.68 512.588 1849.47 268.244 16.6127 1.93584e+17 3.29224e+14 0 6.10006e+16 5.38987e+16 0 
6340 1 29.7367 4.19573e+17 15597.6 1312.89 595.636 1386.67 251.983 3.94417 2.6004e+17 3.76256e+14 0 8.46577e+16 7.44988e+16 0 
10436 1 36.3633 5.13073e+17 12878.3 1246.88 582.611 1005.57 274.855 -1.93012 3.09565e+17 5.64385e+14 0 1.0808e+17 9.48636e+16 0 
14532 1 26.4833 3.7367e+17 15368 1381.3 581.915 1406.45 284.839 1.08493 2.29516e+17 4.7032e+14 0 7.60038e+16 6.76791e+16 0 
18628 1 31.6033 4.45911e+17 14096 1390.48 572.29 1194.81 312.635 -4.72963 2.78242e+17 5.17353e+14 0 9.06308e+16 7.65211e+16 0 
5196 1 24.2167 3.41688e+17 18445 1361.49 548.107 2012.66 314.085 2.1425 2.22179e+17 2.82192e+14 0 6.25526e+16 5.66736e+16 0 
9292 1 28.3367 3.99819e+17 17185.5 1399.97 567.412 1805.06 338.552 -13.644 2.53503e+17 4.7032e+14 0 7.75088e+16 6.83376e+16 0 
13388 1 21.2767 3.00206e+17 19980.5 1280.23 517.635 2403.96 318.707 3.62838 1.97158e+17 1.88128e+14 0 5.33814e+16 4.94777e+16 0 
17484 1 23.3133 3.28942e+17 18486.8 1265.7 559.988 2118.61 359.834 -3.74345 2.12726e+17 9.40641e+13 0 6.07184e+16 5.54038e+16 0 
4748 1 33.7267 4.7587e+17 14753.1 1257.56 572.219 1410.96 376.294 2.2042 2.98654e+17 4.7032e+14 0 9.78267e+16 7.89198e+16 0 
8844 1 39.68 5.5987e+17 12562.4 1319.03 575.385 1114.32 401.633 6.51345 3.52129e+17 5.64385e+14 0 1.12077e+17 9.50988e+16 0 
12940 1 26.0467 3.67508e+17 16787 1380.02 600.802 1851.51 404.305 -3.6995 2.35537e+17 1.41096e+14 0 7.45458e+16 5.7285e+16 0 
17036 1 30.8133 4.34764e+17 14686.7 1344.32 586.326 1508.32 461.786 -12.1264 2.72598e+17 2.3516e+14 0 8.74326e+16 7.44988e+16 0 
5772 1 21.34 3.01099e+17 18006.2 1366.87 569.686 2145.12 421.698 34.6467 1.92173e+17 2.82192e+14 0 5.85079e+16 5.01362e+16 0 
9868 1 23.4533 3.30917e+17 16191.9 1404.64 581.189 1803.68 487.383 7.42083 2.15595e+17 1.41096e+14 0 6.10006e+16 5.41809e+16 0 
13964 1 18.4633 2.60511e+17 19958.2 1451.79 548.667 2652.13 427.787 -10.1326 1.75477e+17 2.3516e+14 0 4.43983e+16 4.04005e+16 0 
18060 1 19.57 2.76125e+17 18324.6 1468.26 569.87 2355.62 491.93 -2.57818 1.81779e+17 3.76256e+14 0 5.03243e+16 4.36457e+16 0 
5892 1 46.14 6.51018e+17 11060.6 1265.14 593.382 805.982 296.602 5.95475 3.96574e+17 4.7032e+14 0 1.34982e+17 1.18991e+17 0 
9988 1 59.5267 8.39898e+17 7984.59 1249 607.068 464.439 307.882 3.59627 5.14813e+17 7.52513e+14 0 1.7416e+17 1.50173e+17 0 
14084 1 39.01 5.50416e+17 11400.7 1280.95 593.627 873.604 336.978 1.14164 3.35056e+17 5.64385e+14 0 1.1584e+17 9.89554e+16 0 
18180 1 49.4167 6.9725e+17 10057.6 1340.86 598.882 762.694 344.539 -7.6887 4.22865e+17 4.23288e+14 0 1.48386e+17 1.25576e+17 0 
73 1 24.2667 8.55983e+16 6839.21 204.581 153.356 6960.73 15.347 -4.83956 8.0754e+16 0 0 2.10468e+15 2.73962e+15 0 
137 1 26.3033 9.27825e+16 8993.7 270.163 170.25 6766.62 21.358 4.25462 8.55631e+16 0 0 3.10412e+15 4.1153e+15 0 
201 1 23.9833 8.45989e+16 5169.47 187.602 161.124 7095.27 16.7997 0.641662 8.09069e+16 0 0 1.65788e+15 2.03414e+15 0 
265 1 24.5767 8.66918e+16 6996.97 240.083 163.293 6936.22 24.6509 -0.660867 8.15888e+16 0 0 2.31633e+15 2.78665e+15 0 
81 1 23.65 8.34231e+16 4270.74 158.881 147.15 7168.52 13.9241 1.60358 8.03778e+16 0 0 1.19932e+15 1.84601e+15 0 
145 1 24.33 8.58217e+16 5946.1 237.883 161.675 7029.18 26.5365 1.48684 8.15301e+16 0 0 1.66964e+15 2.62204e+15 0 
209 1 23.21 8.1871e+16 3340.2 177.027 148.462 7234.64 19.079 -1.52673 7.93783e+16 0 0 1.03471e+15 1.45799e+15 0 
273 1 24.1467 8.5175e+16 4663.81 216.292 155.226 7129.71 27.7872 3.03772 8.20709e+16 1.1758e+13 0 1.37569e+15 1.71667e+15 0 
89 1 23.25 8.20121e+16 2652.61 163.04 148.161 7284.86 15.5614 0.631688 8.02484e+16 0 0 8.34819e+14 9.28883e+14 0 
153 1 23.32 8.22591e+16 3515.34 185.817 150.528 7221.7 19.278 0.0978697 7.96017e+16 0 0 1.15229e+15 1.50503e+15 0 
217 1 22.9367 8.09069e+16 2132.11 161.579 142.383 7328.09 12.3391 -0.419861 7.94254e+16 0 0 6.46691e+14 8.34819e+14 0 
281 1 23.1067 8.15065e+16 2603.55 189.279 147.395 7289.51 18.0996 -2.04113 7.97311e+16 0 0 7.87787e+14 9.87673e+14 0 
74 1 26.8933 9.48636e+16 13032.1 396.209 206.079 6351.08 43.1516 0.541714 8.39875e+16 2.3516e+13 0 4.93837e+15 5.91428e+15 0 
138 1 31.12 1.09773e+17 17299.2 491.272 244.374 5776.33 75.7661 0.36132 9.2124e+16 2.3516e+13 0 8.53632e+15 9.08894e+15 0 
202 1 26.4567 9.33233e+16 10637.5 349.278 190.688 6590.87 46.9104 -0.620684 8.49399e+16 0 0 3.71553e+15 4.66793e+15 0 
266 1 28.8367 1.01719e+17 14346.9 419.878 217.252 6179.67 79.2215 -1.44925 8.92668e+16 1.1758e+13 0 5.7967e+15 6.64328e+15 0 
82 1 25.2433 8.90434e+16 7960.11 270.158 172.117 6836.01 43.828 0.491883 8.26823e+16 0 0 2.96302e+15 3.39807e+15 0 
146 1 26.83 9.46402e+16 11286.7 370.4 200.869 6499.94 69.6938 0.179236 8.50222e+16 3.5274e+13 0 4.6209e+15 4.96188e+15 0 
210 1 24.1667 8.52456e+16 6560.72 244.357 166.53 6966.49 39.7176 -0.0272266 8.0707e+16 1.1758e+13 0 2.09293e+15 2.43391e+15 0 
274 1 25.5233 9.00311e+16 8243.87 324.713 178.64 6817.74 68.3823 -5.28875 8.39287e+16 1.1758e+13 0 2.76313e+15 3.32752e+15 0 
90 1 23.82 8.40228e+16 4141.28 224.547 154.439 7168.32 30.7777 4.8619 8.11891e+16 1.1758e+13 0 1.21108e+15 1.61085e+15 0 
154 1 24.33 8.58217e+16 5398.78 291.562 173.943 7056.06 49.4374 1.89978 8.15301e+16 0 0 1.75194e+15 2.53973e+15 0 
218 1 23.34 8.23296e+16 2844.9 193.216 146.386 7263.39 22.4758 1.88487 8.00838e+16 0 0 7.99545e+14 1.44624e+15 0 
282 1 23.4267 8.26353e+16 4182.07 250.691 154.534 7158.15 45.9597 0.292273 7.94254e+16 0 0 1.35217e+15 1.85777e+15 0 
83 1 28.6067 1.00907e+17 13857.4 440.185 229.821 6207.32 112.652 1.42732 8.85966e+16 3.5274e+13 0 6.04362e+15 6.23175e+15 0 
211 1 26.3167 9.28295e+16 9951.13 366.227 199.88 6626.12 90.3677 -4.3863 8.43049e+16 2.3516e+13 0 3.99772e+15 4.50332e+15 0 
91 1 24.99 8.81498e+16 7096.05 321.256 182.826 6898.14 73.3326 -3.461 8.2212e+16 0 0 2.8572e+15 3.0806e+15 0 
219 1 24.13 8.51163e+16 4416.69 269.584 162.135 7136.35 51.859 4.22141 8.14713e+16 1.1758e+13 0 1.5403e+15 2.09293e+15 0 
75 1 37.1933 1.31196e+17 21756.5 681.817 330.183 4882.32 127.999 -6.26917 1.0273e+17 1.1758e+13 0 1.43683e+16 1.40861e+16 0 
203 1 32.42 1.14358e+17 18264 583.286 263.194 5570.63 128.311 3.53107 9.47578e+16 2.3516e+13 0 9.1007e+15 1.04764e+16 0 
1731 1 17.8933 1.26234e+17 23004.9 678.846 299.669 4533.79 87.904 -6.29629 9.47931e+16 1.64612e+14 0 1.4627e+16 1.66493e+16 0 
2243 1 21.57 1.52172e+17 23930.1 772.58 377.26 3946.31 121.354 3.48069 1.11113e+17 7.05481e+13 0 2.02943e+16 2.06941e+16 0 
267 1 38.7167 1.36569e+17 21455.4 855.001 343.887 4768.37 218.89 -1.31714 1.05469e+17 1.41096e+14 0 1.55559e+16 1.5403e+16 0 
147 1 30.9 1.08997e+17 16601.6 573.22 272.6 5797.35 171.95 5.79884 9.21828e+16 1.1758e+13 0 8.3717e+15 8.43049e+15 0 
275 1 27.37 9.6545e+16 11181.8 488.968 238.628 6465.06 123.744 -3.51157 8.59276e+16 3.5274e+13 0 5.32638e+15 5.25583e+15 0 
155 1 25.7167 9.07131e+16 7450.59 387.478 183.75 6851.55 88.2315 4.04851 8.39404e+16 2.3516e+13 0 3.10412e+15 3.64498e+15 0 
283 1 24.3033 8.57277e+16 5066.13 280.622 167.243 7070.22 65.8082 0.142377 8.14948e+16 0 0 2.01062e+15 2.22226e+15 0 
651 1 25.1733 1.77593e+17 23148.8 915.646 411.488 4002.47 164.537 0.586281 1.27951e+17 4.7032e+13 0 2.47153e+16 2.488e+16 0 
1163 1 30.2867 2.13667e+17 23027.5 1080.49 419.828 3382.15 216.402 2.50216 1.48645e+17 1.64612e+14 0 3.31341e+16 3.17231e+16 0 
1675 1 20.77 1.46528e+17 22878.4 883.918 386.204 4191.45 204.335 19.836 1.07233e+17 1.1758e+14 0 1.94242e+16 1.97535e+16 0 
2187 1 24.6433 1.73854e+17 23084.5 1002.12 427.441 3716.26 249.655 7.80053 1.23036e+17 2.11644e+14 0 2.46213e+16 2.59852e+16 0 
1795 1 25.5233 1.80062e+17 23394.6 1005.6 436.76 3281.74 161.83 -0.755752 1.23812e+17 1.41096e+14 0 2.77724e+16 2.83368e+16 0 
2307 1 32.53 2.29493e+17 21296.3 1079.53 494.642 2503.32 197.226 -3.18239 1.50009e+17 2.3516e+14 0 4.07768e+16 3.84722e+16 0 
257 1 25.8433 9.11599e+16 9861.42 261.588 177.711 6683.39 11.4995 0.159886 8.31291e+16 0 0 3.46861e+15 4.56211e+15 0 
194 1 28.6367 1.01013e+17 14758.5 423.169 209.574 6145.04 34.8401 -0.731485 8.75149e+16 2.3516e+13 0 6.37284e+15 7.10184e+15 0 
258 1 33.05 1.16581e+17 19415.8 536.171 257.813 5460.23 52.229 -3.56786 9.53104e+16 3.5274e+13 0 1.03118e+16 1.09232e+16 0 
1292 2 30.7567 2.16982e+17 19795.8 1384.2 514.365 3413.04 480.376 -6.61324 1.49374e+17 7.05481e+13 0 3.65909e+16 3.09471e+16 0 
2316 2 22.6133 1.59533e+17 19851.8 1251.66 438.144 4350.28 426.11 9.47336 1.17909e+17 9.40641e+13 0 2.12585e+16 2.02708e+16 0 
13444 2 163.773 2.31078e+18 5149.37 1406.34 655.174 201.263 122.476 -3.00796 1.3953e+18 1.26987e+15 0 5.11803e+17 4.02406e+17 0 
6276 2 143.307 2.022e+18 3819.09 1197.84 612.898 37.161 156.029 -2.28672 1.24089e+18 1.50503e+15 0 4.40408e+17 3.39195e+17 0 
14468 2 126.027 1.77819e+18 4400.11 1198.82 602.926 102.937 152.297 2.50614 1.09354e+18 4.7032e+14 0 3.75081e+17 3.09095e+17 0 
5380 2 113.86 1.60652e+18 5280.25 1253.62 627.683 225.973 178.011 7.36819 9.81418e+17 1.03471e+15 0 3.44604e+17 2.79464e+17 0 
9476 2 182.567 2.57595e+18 3573.51 1139.42 589.999 109.068 150.676 -1.35872 1.6124e+18 9.40641e+14 0 5.55072e+17 4.07533e+17 0 
13572 2 100.453 1.41736e+18 6084.31 1307.2 625.537 309.41 231.666 -2.069 8.6713e+17 1.1758e+15 0 3.11822e+17 2.3723e+17 0 
17668 2 156.65 2.21027e+18 4029.13 1170 602.302 142.064 200.197 -0.725332 1.40179e+18 2.96302e+15 0 4.56023e+17 3.49495e+17 0 
6404 2 82.41 1.16277e+18 6504.21 1271.09 620.831 343.098 295.568 3.71174 7.20907e+17 1.69315e+15 0 2.46448e+17 1.93725e+17 0 
10500 2 121.41 1.71305e+18 4517.03 1178.5 606.752 188.468 274.088 0.633147 1.08931e+18 1.03471e+15 0 3.5227e+17 2.70434e+17 0 
14596 2 63.9033 9.01651e+17 8029.26 1263.88 594.015 541.273 366.461 2.47552 5.72239e+17 5.64385e+14 0 1.81309e+17 1.4754e+17 0 
18692 2 86.9567 1.22693e+18 6364.29 1276.79 630.927 418.295 352.785 -6.01133 7.74053e+17 2.06941e+15 0 2.60416e+17 1.90386e+17 0 
5260 2 49.1067 6.92876e+17 10962.5 1334.85 599.781 973.655 418.93 8.43582 4.40972e+17 3.76256e+14 0 1.44435e+17 1.07092e+17 0 
9356 2 58.1567 8.20568e+17 9538.38 1468.39 660.688 906.507 453.168 2.57813 5.16412e+17 7.52513e+14 0 1.71526e+17 1.31878e+17 0 
13452 2 36.0867 5.09169e+17 14175.8 1516.88 622.374 1533.4 484.629 3.83188 3.26261e+17 3.76256e+14 0 1.01871e+17 8.066e+16 0 
17548 2 39.74 5.60716e+17 12301.5 1465.52 610.631 1375.41 522.212 12.4322 3.54481e+17 4.7032e+14 0 1.11936e+17 9.38289e+16 0 
6284 2 26.2433 3.70283e+17 15639 1496.68 577.064 1898.41 510.826 3.78661 2.3342e+17 2.3516e+14 0 7.23353e+16 6.42928e+16 0 
10380 2 27.86 3.93094e+17 15334.3 1518.91 606.532 1962.47 550.166 18.2036 2.5576e+17 2.3516e+14 0 7.41225e+16 6.29759e+16 0 
14476 2 20.1333 2.84074e+17 17964 1328.39 629.849 2456.82 517.23 9.35613 1.88834e+17 2.3516e+14 0 5.02773e+16 4.47275e+16 0 
18572 2 20.27 2.86002e+17 17381.7 1515.08 555.884 2472.46 543.323 -17.0861 1.86341e+17 2.3516e+14 0 5.49805e+16 4.44453e+16 0 
9348 2 485.153 6.84533e+18 2821.05 1238.7 617.113 75.9051 53.1901 -2.55334 4.50496e+18 6.49042e+15 0 1.34888e+18 9.84992e+17 0 
17540 2 350.483 4.94518e+18 2624.62 1124.77 597.324 38.4758 104.684 -2.74688 3.18412e+18 4.32695e+15 0 1.03155e+18 7.25187e+17 0 
8 3 9.14 1.61202e+16 8057.22 3516.9 1003.3 4845.34 -169.255 -26.5667 9.8297e+15 5.87901e+12 0 3.42746e+15 2.8572e+15 0 
7 3 8.03333 1.41684e+16 8830.71 3832.84 1077.05 4443.03 -346.236 10.3885 8.64214e+15 0 0 2.98654e+15 2.53973e+15 0 
80 3 25.7133 9.07013e+16 5061.22 1472.18 461.322 6469.35 23.2656 3.04231 7.14064e+16 2.3516e+13 0 1.01119e+16 9.15949e+15 0 
144 3 23.2433 8.19886e+16 4833.01 1450.23 455.336 6517.49 17.1722 -4.61576 6.46338e+16 3.5274e+13 0 9.28883e+15 8.03072e+15 0 
208 3 28.72 1.01307e+17 4553.45 1322.61 401.698 6627.72 112.537 -0.321929 8.2165e+16 1.1758e+13 0 1.01354e+16 8.99488e+15 0 
272 3 28.16 9.93317e+16 4275.1 1287.56 389.215 6690.37 98.3904 -2.91554 8.19651e+16 8.23061e+13 0 9.27707e+15 8.00721e+15 0 
88 3 27.5767 9.7274e+16 4049.12 1070.23 352.423 6831.2 135.091 4.1741 8.43285e+16 3.5274e+13 0 7.01953e+15 5.89076e+15 0 
152 3 27.2733 9.62041e+16 3962.96 1079.46 340.223 6830.61 133.289 -8.17519 8.3623e+16 4.7032e+13 0 6.84316e+15 5.69088e+15 0 
216 3 25.5667 9.0184e+16 3500.32 803.275 278.775 6985.77 135.808 1.34036 8.16006e+16 1.1758e+13 0 4.53859e+15 4.033e+15 0 
280 3 26.2867 9.27237e+16 3196.08 770.874 279.769 7022.57 128.017 -1.89334 8.42697e+16 1.1758e+13 0 4.57387e+15 3.86839e+15 0 
96 3 24.8867 8.77853e+16 2838.06 623.002 249.562 7119.47 121.595 3.12817 8.20827e+16 1.1758e+13 0 3.10412e+15 2.58676e+15 0 
160 3 25.5333 9.00664e+16 2770.01 607.563 241.374 7117.96 122.462 -0.177436 8.37053e+16 1.1758e+13 0 3.18642e+15 3.16291e+15 0 
224 3 24.2 8.53632e+16 2503.29 522.224 211.396 7191.77 108.741 -1.98056 8.11185e+16 2.3516e+13 0 2.31633e+15 1.9048e+15 0 
288 3 24.4067 8.60922e+16 2098.28 485.511 202.014 7227.7 103.425 3.03678 8.19063e+16 0 0 2.41039e+15 1.77546e+15 0 
79 3 28.0267 9.88614e+16 5836.03 1847.18 536.065 6219.31 43.2642 4.27422 7.29702e+16 2.3516e+13 0 1.36275e+16 1.22401e+16 0 
143 3 26.56 9.36878e+16 5496.65 1685.98 478.21 6334.79 32.1309 -0.00912214 7.19943e+16 2.3516e+13 0 1.13112e+16 1.03588e+16 0 
207 3 30.5233 1.07668e+17 5468.29 1530.2 437.939 6480.79 160.197 4.22176 8.66801e+16 4.7032e+13 0 1.1029e+16 9.912e+15 0 
271 3 29.46 1.03917e+17 5133.66 1399.47 434.91 6520.4 136.088 -1.06797 8.35172e+16 2.3516e+13 0 1.07586e+16 9.61805e+15 0 
87 3 27.9867 9.87203e+16 5151.35 1184.94 340.296 6691.73 178.06 2.92663 8.46577e+16 3.5274e+13 0 7.53689e+15 6.49042e+15 0 
151 3 27.84 9.82029e+16 4364.25 1157.82 345.693 6798.92 159.464 1.02344 8.45048e+16 2.3516e+13 0 7.24294e+15 6.43163e+15 0 
215 3 26.5667 9.37114e+16 4447.03 831.182 283.538 6910.58 166.782 2.22299 8.49281e+16 2.3516e+13 0 4.78551e+15 3.97421e+15 0 
279 3 26.4733 9.33821e+16 3800.41 900.756 267.314 6955.63 155.493 -4.4754 8.43637e+16 3.5274e+13 0 4.89133e+15 4.09179e+15 0 
95 3 25.37 8.94902e+16 3602.95 631.1 227.571 7055.97 136.112 6.94304 8.32115e+16 0 0 3.63323e+15 2.64555e+15 0 
159 3 25.4767 8.98665e+16 3335.79 650.387 255.513 7076.54 145.635 3.94184 8.34701e+16 2.3516e+13 0 3.63323e+15 2.73962e+15 0 
223 3 24.4 8.60686e+16 2809.3 482.642 211.785 7181.66 113.218 -2.00913 8.20004e+16 1.1758e+13 0 2.21051e+15 1.84601e+15 0 
287 3 24.2133 8.54102e+16 2750.8 498.095 203.575 7180.4 124.776 -5.6102 8.09422e+16 0 0 2.13996e+15 2.32809e+15 0 
142 3 30.6367 1.08068e+17 6380.82 1947.1 586.772 6074.04 71.6529 -3.83419 7.78616e+16 7.05481e+13 0 1.58616e+16 1.42742e+16 0 
270 3 31.34 1.10549e+17 6256.66 1468.92 462.575 6365.24 187.378 2.67553 8.75619e+16 2.3516e+13 0 1.18168e+16 1.11466e+16 0 
150 3 28.9433 1.02095e+17 5807.54 1134.33 360.627 6659.6 204.746 7.88301 8.75149e+16 1.1758e+13 0 7.77205e+15 6.79613e+15 0 
278 3 27.1467 9.57573e+16 5284 891.409 305.934 6840.58 193.293 0.715906 8.61745e+16 0 0 4.96188e+15 4.6209e+15 0 
158 3 25.3667 8.94785e+16 4488.05 605.045 241.237 6998.59 156.956 5.52372 8.28352e+16 1.1758e+13 0 3.59795e+15 3.03357e+15 0 
286 3 24.66 8.69858e+16 3428.65 469.395 199.538 7133.56 119.303 -0.838439 8.22355e+16 4.7032e+13 0 2.75137e+15 1.95183e+15 0 
94 3 25.54 9.00899e+16 5311.45 562.708 230.513 6931.38 171.215 -2.65921 8.26823e+16 0 0 3.95069e+15 3.45686e+15 0 
222 3 24.1567 8.52103e+16 3937.92 471.396 210 7100.53 120.829 1.48043 8.06952e+16 0 0 2.18699e+15 2.32809e+15 0 
6 3 6.42 1.21965e+16 9533.7 3449.28 1005.14 3779.02 -582.058 -67.282 6.97212e+15 0 0 2.71032e+15 2.51402e+15 0 
206 3 33.3667 1.17698e+17 7937.58 1689.73 509.109 6133.29 247.52 0.512937 9.28295e+16 3.5274e+13 0 1.37334e+16 1.10996e+16 0 
86 3 29.8033 1.05128e+17 7743.1 1302.16 377.632 6425.73 266.727 5.04755 8.9114e+16 0 0 8.71269e+15 7.30173e+15 0 
214 3 27.8367 9.81912e+16 6583.42 881.381 300.772 6710.29 211.837 -5.56454 8.688e+16 0 0 6.31405e+15 4.99716e+15 0 
1165 3 18.21 1.28468e+17 8042.44 2455.3 698.506 5519.85 62.7419 6.69192 8.50104e+16 4.7032e+13 0 2.3516e+16 1.98946e+16 0 
2189 3 19.6867 1.38886e+17 9071.16 2375.13 612.785 5564.6 242.383 0.345481 9.69801e+16 4.7032e+13 0 2.33984e+16 1.84601e+16 0 
1293 3 19.5133 1.37663e+17 10074.1 1905.73 539.35 5739.88 301.014 2.55945 1.03706e+17 4.7032e+13 0 1.90009e+16 1.49092e+16 0 
2317 3 16.7733 1.18333e+17 10629.9 1497.69 481.774 5890.7 334.498 -1.17808 9.36643e+16 7.05481e+13 0 1.32395e+16 1.13582e+16 0 
590 3 16.7567 1.18215e+17 7550.46 2195.73 649.718 5744.74 20.3976 -17.411 8.20239e+16 1.41096e+14 0 1.93302e+16 1.67199e+16 0 
1102 3 14.8233 1.04576e+17 6955.25 1959.57 585.756 5935.21 11.3645 23.0167 7.26175e+16 4.7032e+13 0 1.67669e+16 1.51443e+16 0 
1614 3 17.58 1.24024e+17 7871.74 2080.49 703.69 5763.35 196.639 6.22956 8.68212e+16 7.05481e+13 0 2.03649e+16 1.67669e+16 0 
2126 3 17.1533 1.21013e+17 7156.61 1939.81 624.277 5893.01 140.61 0.758509 8.55748e+16 2.3516e+13 0 1.8366e+16 1.70491e+16 0 
5 3 168.09 2.87468e+18 2885.34 1013.87 578.317 102.483 187.762 0.220028 1.91046e+18 2.79333e+15 0 5.64594e+17 3.96823e+17 0 
5 3 2.17667 1.54477e+16 8561.78 3208.58 1041.8 2486.85 -602.811 76.1844 7.87762e+15 2.36565e+13 0 4.5184e+15 3.02803e+15 0 
85 3 33.8867 1.19532e+17 14508.9 1196.32 383.241 5644.68 336.255 -2.89272 9.64745e+16 4.7032e+13 0 1.22871e+16 1.07233e+16 0 
149 3 31.7033 1.1183e+17 10686.4 1203.59 366.869 6142.46 307.67 0.381998 9.28765e+16 2.3516e+13 0 9.95904e+15 8.97136e+15 0 
213 3 28.87 1.01836e+17 10418.3 763.485 290.891 6393.13 224.853 0.0611318 8.90905e+16 3.5274e+13 0 6.72558e+15 5.98483e+15 0 
277 3 27.8667 9.8297e+16 8429.54 896.998 296.14 6549.15 229.118 0.0896358 8.63979e+16 2.3516e+13 0 5.90252e+15 5.97307e+15 0 
93 3 26.08 9.19947e+16 6904.48 477.065 230.85 6840.07 151.896 3.84288 8.50339e+16 3.5274e+13 0 3.53916e+15 3.38631e+15 0 
157 3 26.14 9.22063e+16 6502.8 599.168 236.35 6833.82 170.619 -1.96935 8.42697e+16 2.3516e+13 0 3.98597e+15 3.92718e+15 0 
221 3 24.8367 8.76089e+16 5030.52 364.561 184.076 7044.77 115.283 5.77075 8.24942e+16 2.3516e+13 0 2.66907e+15 2.42215e+15 0 
285 3 24.5767 8.66918e+16 4541.94 454.779 200.339 7059.87 119.85 -1.18134 8.18828e+16 1.1758e+13 0 2.53973e+15 2.25754e+15 0 
2125 3 30.6433 2.16183e+17 15600.5 2146.15 654.112 3724.67 519.2 -6.47437 1.47563e+17 7.05481e+13 0 3.85898e+16 2.99594e+16 0 
653 3 21.1833 1.49444e+17 9636.22 2401.07 771.811 5096.51 127.314 -2.70407 9.77091e+16 7.05481e+13 0 2.66907e+16 2.4974e+16 0 
1677 3 21.5933 1.52337e+17 12095.7 2430.27 699.92 4906.9 359.255 20.1788 1.04858e+17 9.40641e+13 0 2.65731e+16 2.08117e+16 0 
717 3 29.05 2.04942e+17 18639.2 1566.59 551.412 3843.88 505.107 2.88101 1.45306e+17 1.1758e+14 0 3.21464e+16 2.73727e+16 0 
1229 3 24.6533 1.73925e+17 16219 1797.14 546.167 4494.44 490.11 11.0997 1.23671e+17 1.1758e+14 0 2.63144e+16 2.38217e+16 0 
1741 3 22.2767 1.57158e+17 18322.1 1399.78 471.343 4576.72 434.543 -3.58843 1.15793e+17 7.05481e+13 0 2.18464e+16 1.94478e+16 0 
2253 3 19.4067 1.3691e+17 15889.6 1545.02 524.762 5034.76 435.13 3.444 1.02365e+17 7.05481e+13 0 1.90715e+16 1.5403e+16 0 
781 3 21.25 1.49915e+17 13209 1961.06 566.206 5193.47 406.876 -0.799514 1.11372e+17 7.05481e+13 0 2.13526e+16 1.71197e+16 0 
1805 3 18.0033 1.2701e+17 13025.5 1661.59 461.337 5471.42 392.066 8.26524 9.59454e+16 9.40641e+13 0 1.64377e+16 1.45329e+16 0 
4685 3 69.0467 9.74222e+17 8009.23 1310.98 624.382 791.736 455.821 0.500882 6.2134e+17 4.7032e+14 0 1.99651e+17 1.5276e+17 0 
8781 3 67.1433 9.47367e+17 8092.94 1439.55 656.332 1045.17 457.109 -2.72446 6.15932e+17 4.7032e+14 0 1.89962e+17 1.41002e+17 0 
12877 3 40.5133 5.71628e+17 11680 1576.4 636.449 1454 552.96 -1.28506 3.64734e+17 3.29224e+14 0 1.16357e+17 9.02075e+16 0 
16973 3 35.11 4.95389e+17 12263.8 1733.69 668.64 1872.81 565.207 7.53887 3.17749e+17 1.88128e+14 0 9.44404e+16 8.30116e+16 0 
5197 3 23.75 3.40286e+17 13410 2040.56 720.971 2713.29 314.64 -12.8888 2.2595e+17 4.77595e+13 0 6.62901e+16 4.79983e+16 0 
9293 3 12.5967 1.77734e+17 10842 2943.2 761.254 4626.36 82.4265 -32.9202 1.09632e+17 1.41096e+14 0 3.54151e+16 3.25462e+16 0 