ITEM: TIMESTEP
22000
ITEM: NUMBER OF CELLS
246
ITEM: BOX BOUNDS oo ao pp
-10 10
0 10
-0.5 0.5
ITEM: CELLS id proc f_avg_n f_avg_nrho f_avg_temp_tra f_avg_temp_rot f_avg_temp_vib f_avg_vel[1] f_avg_vel[2] f_avg_vel[3] f_avg_nrho_CO2 f_avg_nrho_O2 f_avg_nrho_C2 f_avg_nrho_CO f_avg_nrho_O f_avg_nrho_C 
65 0 24.4389 8.62058e+16 6488.39 200.101 155.177 6991.68 13.0673 -0.374916 8.15497e+16 1.95967e+13 0 2.01846e+15 2.61812e+15 0 
129 0 26.9789 9.51654e+16 9919.29 303.511 177.354 6676.53 19.7516 -1.7611 8.66761e+16 1.1758e+13 0 3.9311e+15 4.54643e+15 0 
66 0 29.3567 1.03553e+17 13939.8 415.422 213.467 6237.73 28.1056 -3.59867 9.01918e+16 2.74354e+13 0 6.11417e+15 7.21942e+15 0 
130 0 34.8522 1.22938e+17 19155.8 558.431 271.169 5490.03 37.1666 0.960974 1.00076e+17 4.31127e+13 0 1.10133e+16 1.1805e+16 0 
579 0 29.8311 2.10453e+17 16273.6 605.443 264.262 5863.88 56.086 -6.06554 1.75814e+17 1.95967e+14 0 1.61242e+16 1.8319e+16 0 
1091 0 32.7333 2.30927e+17 19323.3 696.037 292.805 5363.5 66.572 10.454 1.8406e+17 3.91934e+13 0 2.19796e+16 2.48486e+16 0 
1603 0 17.8167 1.25693e+17 23870.9 759.792 360.258 4039.24 44.2415 -6.0705 9.05994e+16 6.27094e+13 0 1.74411e+16 1.759e+16 0 
2115 0 21.6678 1.52862e+17 23853.8 849.099 416.81 3312.99 60.0307 -2.5408 1.05117e+17 3.91934e+13 0 2.36728e+16 2.40334e+16 0 
707 0 21.9922 1.55151e+17 21636.2 723.391 313.124 4911.49 65.3852 -6.2819 1.19148e+17 5.48707e+13 0 1.759e+16 1.83582e+16 0 
1219 0 24.7556 1.74646e+17 23420.6 801.86 351.137 4225.48 83.9159 -0.451972 1.27763e+17 3.91934e+13 0 2.31084e+16 2.37355e+16 0 
643 0 38.6144 2.72417e+17 21638 900.999 361.293 4717.67 61.2632 -5.19667 2.04049e+17 1.09741e+14 0 3.45294e+16 3.37298e+16 0 
1667 0 27.75 1.95771e+17 22024.5 1014.53 462.948 2570.33 62.4093 1.63819 1.26085e+17 7.05481e+13 0 3.5517e+16 3.40982e+16 0 
2179 0 37.4967 2.64532e+17 19058.9 1128.53 519.381 1879.57 88.794 2.55466 1.63327e+17 1.48935e+14 0 5.1798e+16 4.92582e+16 0 
771 0 29.89 2.10868e+17 23613.9 947.784 407.724 3530.17 106.989 -0.349722 1.46803e+17 1.1758e+14 0 3.16134e+16 3.23345e+16 0 
1283 0 38.2822 2.70074e+17 21837.2 1155.11 489.946 2713.29 134.411 -0.687311 1.77029e+17 1.48935e+14 0 4.73691e+16 4.5527e+16 0 
5251 0 29.16 4.11436e+17 18317.9 914.266 359.999 5341.05 61.6488 8.1337 3.1905e+17 1.56773e+14 0 4.58249e+16 4.6405e+16 0 
9347 0 31.4244 4.43387e+17 20906.9 1017.81 388.17 4783.48 53.1731 21.338 3.31262e+17 1.88128e+14 0 5.71596e+16 5.47767e+16 0 
13443 0 19.4089 2.73852e+17 22929.8 1055.4 489.005 3308.55 53.3616 -14.5299 1.84444e+17 9.40641e+13 0 4.46334e+16 4.46804e+16 0 
17539 0 22.9533 3.23863e+17 22266.9 1212.74 502.529 2961.14 64.5685 9.60923 2.13181e+17 1.88128e+14 0 5.73791e+16 5.31149e+16 0 
4676 0 34.7044 4.89666e+17 21739.2 1224.67 450.357 4262.28 46.155 7.89367 3.50451e+17 2.82192e+14 0 7.28683e+16 6.60644e+16 0 
8772 0 38.6489 5.45321e+17 21810.5 1513.37 494.503 3686.2 34.4612 1.31211 3.67195e+17 4.38966e+14 0 9.24337e+16 8.52534e+16 0 
12868 0 27.2967 3.85145e+17 21242.9 1258.54 546.905 2643.19 68.5871 5.23687 2.47169e+17 1.88128e+14 0 6.99053e+16 6.78829e+16 0 
16964 0 31.9522 4.50834e+17 19014.6 1352.28 559.146 2057.41 75.3196 -4.02721 2.80358e+17 3.29224e+14 0 8.72445e+16 8.29018e+16 0 
5188 0 46.87 6.61318e+17 21130.5 1559.22 544.794 3132.5 53.9101 3.72038 4.22238e+17 4.54643e+14 0 1.24431e+17 1.14194e+17 0 
9284 0 58.2789 8.22293e+17 19695.6 1598.49 608.915 2573.65 35.7919 -7.08107 5.09059e+17 7.21158e+14 0 1.60379e+17 1.52133e+17 0 
13380 0 39.8111 5.61719e+17 17100 1419.56 591.099 1716.16 84.9879 -0.812619 3.40198e+17 4.23288e+14 0 1.14915e+17 1.06183e+17 0 
17476 0 50.3456 7.10356e+17 14291.4 1431.19 629.963 1251.58 82.2027 -2.6732 4.22207e+17 6.58449e+14 0 1.53105e+17 1.34371e+17 1.56773e+13 
5700 0 24.13 3.40465e+17 16650 1160.24 544.965 1458.41 91.5409 -8.19097 2.06079e+17 2.03806e+14 0 7.01561e+16 6.40263e+16 0 
9796 0 29.8533 4.21219e+17 14524.1 1288.87 576.584 1157.77 96.9381 4.91494 2.53236e+17 2.9787e+14 0 8.83889e+16 7.9296e+16 0 
13892 0 24.1189 3.40308e+17 16464 1213.5 530.004 1426.1 113.02 -3.43143 2.05608e+17 3.76256e+14 0 7.12536e+16 6.307e+16 0 
17988 0 29.23 4.12424e+17 14141.1 1284.09 581.748 1105.97 137.777 -1.38065 2.46134e+17 2.82192e+14 0 8.62725e+16 7.9735e+16 0 
6212 0 37.5567 5.2991e+17 12345.4 1285.01 598.871 866.169 103.1 0.877573 3.16745e+17 2.9787e+14 0 1.12218e+17 1.00649e+17 0 
10308 0 48.57 6.85304e+17 9697.02 1311.29 617.557 548.762 106.855 0.0367079 4.04664e+17 5.3303e+14 0 1.51945e+17 1.28162e+17 0 
14404 0 37.21 5.25019e+17 11738.9 1345.2 600.402 793.515 143.13 2.52837 3.1096e+17 4.38966e+14 0 1.13316e+17 1.00304e+17 0 
18500 0 46.9756 6.62807e+17 9601.42 1266.77 590.234 537.775 151.755 12.0838 3.93125e+17 5.64385e+14 0 1.42633e+17 1.26485e+17 0 
4804 0 25.1811 3.55296e+17 19851.5 1183.7 519.41 2146.91 138.564 6.9089 2.27055e+17 2.50838e+14 0 6.66287e+16 6.13611e+16 0 
8900 0 29.8056 4.20545e+17 17919.7 1217.82 549.029 1738.77 155.103 -0.911214 2.62e+17 2.66515e+14 0 8.14438e+16 7.68347e+16 0 
12996 0 23.1278 3.26324e+17 19897 1255.58 530.859 2168.44 192.378 6.89716 2.09387e+17 2.03806e+14 0 6.01853e+16 5.65482e+16 0 
17092 0 27.5811 3.89159e+17 17667 1241.74 567.636 1745.69 195.454 1.92168 2.41572e+17 1.25419e+14 0 7.84495e+16 6.90117e+16 0 
5316 0 35.9989 5.0793e+17 15089.1 1343.62 585.004 1323.77 178.313 3.71717 3.08076e+17 3.29224e+14 0 1.06888e+17 9.26375e+16 0 
9412 0 46.3244 6.5362e+17 12980.2 1309.36 600.223 1044.92 186.168 1.19676 3.92514e+17 5.17353e+14 0 1.3782e+17 1.22769e+17 0 
13508 0 33.2078 4.68549e+17 15660.1 1343.02 574.828 1415.64 219.916 -0.323013 2.87287e+17 2.3516e+14 0 9.6353e+16 8.46734e+16 0 
17604 0 40.7122 5.74434e+17 13189.7 1314.18 596.367 1064.68 235.648 -2.00905 3.46908e+17 4.38966e+14 0 1.19446e+17 1.07641e+17 0 
4740 0 74.4589 1.05059e+18 16475.2 1705.96 658.945 1858.06 41.5908 6.08994 6.2642e+17 8.15222e+14 0 2.20643e+17 2.02708e+17 0 
8836 0 105.226 1.48469e+18 12504.3 1744.71 699.339 1190 41.8399 -1.07089 8.69701e+17 1.3169e+15 0 3.27218e+17 2.86457e+17 0 
12932 0 69.3244 9.78141e+17 11141.7 1487.87 648.109 844.195 84.5409 -1.86256 5.71142e+17 5.64385e+14 0 2.17351e+17 1.89085e+17 0 
17028 0 99.69 1.40659e+18 8089.07 1474.09 657.65 488.801 96.4936 0.502392 8.27341e+17 1.3169e+15 0 3.1535e+17 2.6258e+17 0 
5764 0 66.2711 9.3506e+17 7889.52 1336.83 643.684 375.574 118.172 -0.386333 5.50416e+17 7.05481e+14 0 2.10029e+17 1.73909e+17 0 
9860 0 92.2056 1.30098e+18 5703.35 1288.54 623.175 173.363 136.142 -0.652896 7.74163e+17 7.99545e+14 0 2.92461e+17 2.33561e+17 0 
13956 0 62.9322 8.87949e+17 7732.95 1286.59 603.434 353.236 161.585 0.530588 5.2944e+17 9.40641e+14 0 1.93114e+17 1.64455e+17 0 
18052 0 86.9289 1.22653e+18 5918.65 1295.96 620.98 211.597 167.814 1.5735 7.33935e+17 1.19148e+15 0 2.71375e+17 2.20032e+17 0 
4868 0 58.7311 8.28673e+17 10031.5 1337.34 604.559 681.277 195.062 1.6988 4.97286e+17 6.89803e+14 0 1.76684e+17 1.54014e+17 0 
8964 0 79.24 1.11805e+18 7621.35 1323.78 620.935 431.829 201.441 3.10195 6.74565e+17 1.11309e+15 0 2.44096e+17 1.98271e+17 0 
13060 0 52.8122 7.4516e+17 10799.6 1300.23 616.106 788.78 247.8 -0.929683 4.49109e+17 5.17353e+14 0 1.58388e+17 1.37145e+17 0 
17156 0 70.8678 9.99917e+17 8623.6 1325.8 627.984 560.012 240.233 -0.18383 6.06369e+17 8.46577e+14 0 2.15015e+17 1.77687e+17 0 
193 0 24.5867 8.67271e+16 6555.11 219.187 158.19 6984.86 8.94086 1.21205 8.19573e+16 7.83867e+12 0 2.0263e+15 2.7357e+15 0 
5252 0 182.761 2.57869e+18 7409.23 1632.07 700.552 516.206 54.6047 -1.75537 1.54124e+18 2.19483e+15 0 5.72944e+17 4.62309e+17 0 
84 1 34.2267 1.20731e+17 17911.9 789.063 319.504 5450.45 245.864 3.42443 9.85086e+16 6.27094e+13 0 1.1225e+16 1.0935e+16 0 
148 1 35.5167 1.25282e+17 17136.8 976.922 353.24 5409.24 303.617 -0.00604076 1.00876e+17 5.87901e+13 0 1.26203e+16 1.17267e+16 0 
212 1 28.7 1.01236e+17 12459.4 566.046 243.004 6283.01 174.929 -1.32233 8.88749e+16 1.95967e+13 0 5.85549e+15 6.4865e+15 0 
276 1 28.95 1.02118e+17 11995.7 680.396 271.332 6265.71 208.348 1.48024 8.86907e+16 3.5274e+13 0 6.7491e+15 6.64328e+15 0 
92 1 25.9178 9.14225e+16 8526.24 440.964 210.458 6723.01 125.543 -1.28804 8.37131e+16 3.91934e+12 0 3.77824e+15 3.92718e+15 0 
156 1 26.1044 9.20809e+16 7983.07 501.773 221.747 6751.77 142.228 -2.6132 8.42109e+16 2.74354e+13 0 4.00556e+15 3.83703e+15 0 
220 1 24.2411 8.55082e+16 5610.93 318.85 183.988 7012.37 91.5805 0.484723 8.06913e+16 0 0 2.26538e+15 2.55149e+15 0 
284 1 24.64 8.69152e+16 5178.66 342.791 188.33 7031.78 97.8536 0.658515 8.18397e+16 1.95967e+13 0 2.54365e+15 2.5123e+15 0 
588 1 37.2544 2.62823e+17 21191.1 1184.23 509.439 2646.11 274.322 -1.18036 1.73972e+17 2.27322e+14 0 4.60052e+16 4.26189e+16 0 
1612 1 28.7578 2.02881e+17 22100.1 1124.55 471.457 3091 313.784 0.779086 1.38407e+17 1.33257e+14 0 3.31576e+16 3.11822e+16 0 
2124 1 34.8911 2.4615e+17 20523.4 1227.8 519.482 2634.55 376.289 -2.54151 1.64644e+17 1.88128e+14 0 4.3293e+16 3.80254e+16 0 
716 1 24.7778 1.74802e+17 22411.2 968.899 409.306 4033.76 291.44 5.70847 1.27245e+17 1.1758e+14 0 2.51073e+16 2.23324e+16 0 
1228 1 27.5911 1.9465e+17 22146.2 1061.3 443.521 3717.7 356.576 2.9297 1.40124e+17 1.09741e+14 0 2.86425e+16 2.57736e+16 0 
1740 1 19.9967 1.41073e+17 21446 886.307 360.233 4618.23 285.444 -1.3925 1.07476e+17 3.91934e+13 0 1.6908e+16 1.66493e+16 0 
2252 1 21.2378 1.49828e+17 21516.1 1047.68 403.737 4299.85 342.788 0.35794 1.12093e+17 4.7032e+13 0 1.98318e+16 1.78565e+16 0 
780 1 30.5333 2.15407e+17 20977.3 1204.43 487.811 3426.37 427.731 -4.75723 1.50165e+17 1.01903e+14 0 3.4498e+16 3.06414e+16 0 
1804 1 22.44 1.5831e+17 20859.5 1219.58 411.306 4200.88 396.494 -7.02409 1.16028e+17 7.83867e+13 0 2.17602e+16 2.04433e+16 0 
5828 1 20.7778 2.93166e+17 19540.5 1092.8 515.027 2037.13 220.728 -2.96642 1.86169e+17 1.25419e+14 0 5.4855e+16 5.20174e+16 0 
9924 1 24.8456 3.50561e+17 17194.9 1286.38 564.503 1654.77 238.17 1.59245 2.17602e+17 2.3516e+14 0 6.96231e+16 6.31013e+16 0 
14020 1 19.2656 2.7183e+17 20207.7 1147.13 508.363 2201.81 232.281 -0.499317 1.78157e+17 1.72451e+14 0 4.96502e+16 4.38495e+16 0 
18116 1 21.77 3.07166e+17 17843.7 1235.81 516.867 1773.51 272.455 7.54649 1.93506e+17 1.88128e+14 0 5.93544e+16 5.41182e+16 0 
6340 1 29.8244 4.20811e+17 15873.6 1245.71 587.487 1454.15 252.938 3.37535 2.58033e+17 4.38966e+14 0 8.52534e+16 7.70855e+16 0 
10436 1 36.6156 5.16631e+17 13238.6 1281.85 602.792 1088.09 273.794 -2.14455 3.127e+17 4.7032e+14 0 1.08236e+17 9.52242e+16 0 
14532 1 26.7178 3.76978e+17 16014.2 1297.01 569.593 1499.63 286.201 1.33496 2.34486e+17 3.91934e+14 0 7.59724e+16 6.61271e+16 0 
18628 1 31.6078 4.45974e+17 14321.1 1307.3 570.608 1250.68 309.354 -1.69434 2.76956e+17 4.23288e+14 0 9.03172e+16 7.8277e+16 0 
5196 1 24.0811 3.39775e+17 18367 1335.24 556.8 1975.7 317.263 -4.0691 2.17241e+17 2.50838e+14 0 6.56881e+16 5.65952e+16 0 
9292 1 27.7967 3.922e+17 16660.3 1385.08 575.239 1714.7 335.892 -2.17669 2.46511e+17 3.13547e+14 0 7.7352e+16 6.8024e+16 0 
13388 1 20.8889 2.94734e+17 19680.6 1249.26 529.67 2352.78 333.13 2.34224 1.9142e+17 1.41096e+14 0 5.50589e+16 4.81138e+16 0 
17484 1 24.1311 3.40481e+17 18421 1275.67 541.164 2092.41 372.523 -6.2886 2.19499e+17 1.72451e+14 0 6.35873e+16 5.72223e+16 0 
4748 1 33.1567 4.67828e+17 14860.1 1351.3 586.991 1430.7 373.954 0.35007 2.94922e+17 3.44902e+14 0 9.3437e+16 7.91236e+16 0 
8844 1 39.7933 5.61469e+17 12925 1325.12 601.27 1195.7 401.478 -0.886712 3.50044e+17 5.01675e+14 0 1.14805e+17 9.61178e+16 0 
12940 1 27.0122 3.81132e+17 16687.7 1327.71 594.589 1811.56 407.781 -5.51122 2.43015e+17 2.19483e+14 0 7.55805e+16 6.23175e+16 0 
17036 1 31.38 4.4276e+17 15007.7 1378.97 581.796 1572.3 452.24 -4.33023 2.81205e+17 2.9787e+14 0 8.82948e+16 7.29624e+16 0 
5772 1 21.8533 3.08342e+17 17797.8 1343.38 561.734 2065.89 439.299 16.9331 2.00294e+17 1.41096e+14 0 5.70812e+16 5.0826e+16 0 
9868 1 23.6378 3.3352e+17 16375.4 1411.03 589.195 1854.16 480.559 -1.02436 2.14764e+17 2.66515e+14 0 6.37284e+16 5.4761e+16 0 
13964 1 18.2911 2.58081e+17 19592.3 1340.19 537.227 2548.79 434.949 5.64125 1.7151e+17 1.88128e+14 0 4.60287e+16 4.03535e+16 0 
18060 1 19.3411 2.72896e+17 18446.4 1418.5 570.089 2353.27 490.292 0.378608 1.79929e+17 2.66515e+14 0 4.99794e+16 4.27208e+16 0 
5892 1 45.9656 6.48556e+17 10885.3 1291.03 617.851 782.89 297.142 -4.4235 3.94991e+17 4.54643e+14 0 1.36095e+17 1.17016e+17 0 
9988 1 59.43 8.38534e+17 8274.81 1282.21 606.475 505.431 303.263 -0.0630564 5.15393e+17 6.74126e+14 0 1.76072e+17 1.46395e+17 0 
14084 1 39.3856 5.55715e+17 11807.2 1353.83 589.642 942.237 336.813 1.40504 3.39775e+17 5.17353e+14 0 1.14539e+17 1.00884e+17 0 
18180 1 49.5522 6.99163e+17 9907.47 1327.98 601.133 753.177 351.021 -5.86237 4.23414e+17 3.29224e+14 0 1.47947e+17 1.27473e+17 0 
73 1 24.3389 8.58531e+16 6492.67 210.885 155.628 6988.13 13.244 -2.29496 8.12792e+16 0 0 1.8852e+15 2.68867e+15 0 
137 1 25.8889 9.13206e+16 9230.09 269.24 176.867 6741.06 24.8738 1.66913 8.41834e+16 0 0 3.19426e+15 3.94285e+15 0 
201 1 24.0744 8.49203e+16 5167.95 194.116 157.007 7094.38 16.6523 0.166336 8.11852e+16 3.91934e+12 0 1.72843e+15 2.00278e+15 0 
265 1 24.6222 8.68525e+16 7363.95 241.344 165.332 6905.12 27.7356 0.0506346 8.12008e+16 7.83867e+12 0 2.61812e+15 3.02573e+15 0 
81 1 23.7367 8.37288e+16 4344.49 177.319 148.884 7159.82 14.3506 0.308428 8.06913e+16 0 0 1.30514e+15 1.73235e+15 0 
145 1 24.2956 8.57002e+16 5915.35 235.868 161.545 7028.41 26.7157 -0.726758 8.1338e+16 0 0 1.75194e+15 2.61028e+15 0 
209 1 23.3567 8.23884e+16 3449.51 171.941 148.796 7227.93 17.677 0.304658 7.99858e+16 3.91934e+12 0 1.00727e+15 1.39136e+15 0 
273 1 24.0956 8.49948e+16 4493.97 211.988 158.271 7140.6 25.0788 1.39497 8.1679e+16 1.95967e+13 0 1.45799e+15 1.83817e+15 0 
89 1 23.3 8.21885e+16 2610.31 164.441 145.09 7291.04 15.4216 0.000516118 8.03151e+16 0 0 8.15222e+14 1.05822e+15 0 
153 1 23.2067 8.18593e+16 3547.15 179.838 148.873 7217.39 22.5889 0.659883 7.92882e+16 0 0 1.13269e+15 1.4384e+15 0 
217 1 22.8111 8.0464e+16 2101.02 156.295 142.221 7330.44 12.0104 0.584552 7.90256e+16 0 0 6.78045e+14 7.60351e+14 0 
281 1 23.3633 8.24119e+16 2653.68 178.697 147.9 7284.37 19.1716 0.4008 8.04836e+16 0 0 8.70093e+14 1.05822e+15 0 
74 1 27.3211 9.63726e+16 12889.5 362.416 206.885 6361.72 43.4237 0.905769 8.52809e+16 1.56773e+13 0 5.21664e+15 5.85941e+15 0 
138 1 31.1489 1.09875e+17 17494.8 506.53 247.954 5750.75 76.9018 2.02311 9.19085e+16 3.91934e+13 0 8.77148e+15 9.15557e+15 0 
202 1 26.5044 9.34919e+16 10713.1 370.619 189.213 6580.98 47.9295 0.076025 8.48497e+16 1.95967e+13 0 3.97421e+15 4.64833e+15 0 
266 1 28.6844 1.01182e+17 14284.8 435.084 220.159 6177.68 78.0252 -2.97247 8.83183e+16 7.83867e+12 0 6.00051e+15 6.85492e+15 0 
82 1 25.3356 8.93687e+16 8311.18 293.259 175.018 6808.95 45.0617 2.38773 8.29136e+16 1.1758e+13 0 3.1002e+15 3.34319e+15 0 
146 1 26.8656 9.47657e+16 11181.2 360.685 200.406 6522.39 74.2706 -0.714283 8.55199e+16 2.3516e+13 0 4.46413e+15 4.75808e+15 0 
210 1 24.2633 8.55866e+16 6499.85 244.849 167.584 6969.83 41.8834 0.157933 8.07501e+16 1.1758e+13 0 2.25362e+15 2.57109e+15 0 
274 1 25.4022 8.96039e+16 8173.54 306.397 181.427 6814.87 65.0623 0.202102 8.3184e+16 1.1758e+13 0 3.00221e+15 3.4059e+15 0 
90 1 24.0233 8.474e+16 4354.26 216.619 154.506 7152.75 33.9055 1.11888 8.15183e+16 3.91934e+12 0 1.39136e+15 1.82641e+15 0 
154 1 24.3467 8.58805e+16 5628.86 262.766 170.459 7035.04 50.1612 2.64976 8.1436e+16 7.83867e+12 0 1.98318e+15 2.45351e+15 0 
218 1 23.2444 8.19925e+16 3030.44 197.483 148.155 7254.28 25.057 1.9281 7.96997e+16 3.91934e+12 0 9.71996e+14 1.3169e+15 0 
282 1 23.6578 8.34505e+16 4252.65 228.362 156.381 7154.77 43.4332 -1.43009 8.0268e+16 3.91934e+12 0 1.48543e+15 1.69315e+15 0 
83 1 28.79 1.01554e+17 13970.8 464.251 227.734 6185.33 109.767 1.25608 8.87612e+16 2.74354e+13 0 6.36892e+15 6.39636e+15 0 
211 1 26.24 9.25591e+16 10072 363.405 197.893 6615.87 90.3515 -1.61934 8.39404e+16 2.74354e+13 0 4.18193e+15 4.40925e+15 0 
91 1 24.9489 8.80048e+16 7042.48 294.607 182.048 6905.1 71.986 -0.285819 8.25216e+16 0 0 2.58284e+15 2.90031e+15 0 
219 1 24.1078 8.50379e+16 4599.48 262.035 163.317 7120.03 52.2173 2.80367 8.14791e+16 1.1758e+13 0 1.54814e+15 1.99886e+15 0 
75 1 37.1278 1.30965e+17 21675.8 678.51 314.244 4903.16 127.05 -0.958461 1.01993e+17 4.31127e+13 0 1.45251e+16 1.44036e+16 0 
203 1 32.5289 1.14743e+17 18245.7 583.881 271.574 5574.28 128.942 3.2135 9.49068e+16 2.3516e+13 0 9.46128e+15 1.0351e+16 0 
1731 1 17.7011 1.24878e+17 22926 695.887 319.439 4544.7 94.4417 -1.5631 9.40406e+16 1.1758e+14 0 1.47994e+16 1.59203e+16 0 
2243 1 21.2833 1.5015e+17 23799 855.037 380.11 3969.28 124.089 5.73437 1.08793e+17 9.40641e+13 0 2.04825e+16 2.07803e+16 0 
267 1 38.4767 1.35723e+17 21336.4 822.23 335.309 4813.65 212.747 0.589766 1.05246e+17 7.83867e+13 0 1.54931e+16 1.49052e+16 0 
147 1 31.1067 1.09726e+17 16647 604.494 270.249 5777.65 173.02 -0.172877 9.23161e+16 1.56773e+13 0 8.7558e+15 8.63822e+15 0 
275 1 27.4444 9.68076e+16 11587.2 504.61 228.53 6424.08 127.456 -1.87788 8.62529e+16 2.3516e+13 0 5.25583e+15 5.27543e+15 0 
155 1 25.6356 9.0427e+16 7887.55 386.468 188.494 6812 93.4117 -0.699768 8.35916e+16 1.95967e+13 0 3.35103e+15 3.46469e+15 0 
283 1 24.3267 8.581e+16 5078.4 285.959 170.196 7072.8 66.9188 0.460042 8.1777e+16 1.1758e+13 0 1.85385e+15 2.16739e+15 0 
651 1 24.9867 1.76276e+17 23269.1 914.73 407.39 3992.92 166.718 2.72654 1.27723e+17 4.7032e+13 0 2.43783e+16 2.41274e+16 0 
1163 1 30.0611 2.12075e+17 22934.1 1086 435.605 3374.15 217.959 -1.17678 1.46771e+17 1.56773e+14 0 3.37612e+16 3.13861e+16 0 
1675 1 20.8867 1.47351e+17 22950.3 860.953 370.089 4211.13 197.495 10.3015 1.08487e+17 1.09741e+14 0 1.95418e+16 1.92126e+16 0 
2187 1 24.59 1.73478e+17 23122.3 956.632 426.358 3693.63 246.205 2.37051 1.23608e+17 1.72451e+14 0 2.51857e+16 2.45115e+16 0 
1795 1 25.3433 1.78792e+17 23456.6 981.199 423.933 3290.46 160.919 -0.809543 1.2266e+17 1.1758e+14 0 2.83838e+16 2.76313e+16 0 
2307 1 32.26 2.27588e+17 21563 1045.66 484.568 2551.27 201.578 4.18326 1.48943e+17 1.33257e+14 0 4.02516e+16 3.82606e+16 0 
257 1 26.0078 9.17399e+16 10111.1 290.589 178.489 6659.28 17.6713 0.151238 8.36857e+16 0 0 3.52348e+15 4.53075e+15 0 
194 1 28.3456 9.99862e+16 14572.6 398.294 213.167 6170.52 29.0146 1.25489 8.68212e+16 1.95967e+13 0 6.05538e+15 7.09008e+15 0 
258 1 33.12 1.16828e+17 19342.6 567.031 259.427 5469.48 51.9458 -1.7833 9.54006e+16 1.56773e+13 0 1.03353e+16 1.1076e+16 0 
1292 2 30.77 2.17076e+17 19916.9 1376.62 522.761 3412.47 485.243 -2.01043 1.51098e+17 9.40641e+13 0 3.55797e+16 3.03043e+16 0 
2316 2 22.4922 1.58678e+17 19984.3 1280.96 465.655 4297.64 433.192 4.82437 1.17259e+17 9.40641e+13 0 2.16347e+16 1.96908e+16 0 
13444 2 164.202 2.31683e+18 5271.51 1393.07 656.925 216.716 119.469 -2.80308 1.40701e+18 1.48935e+15 0 5.10721e+17 3.97609e+17 0 
6276 2 142.073 2.0046e+18 3969.83 1223.38 619.864 53.1709 152.08 0.703874 1.22873e+18 1.8656e+15 0 4.35015e+17 3.38991e+17 0 
14468 2 126.408 1.78357e+18 4305.96 1209.98 606.692 92.0987 155.338 2.20179 1.09635e+18 1.05038e+15 0 3.84675e+17 3.01491e+17 0 
5380 2 113.976 1.60815e+18 5484.44 1283.35 619.575 249.342 184.296 0.881203 9.81778e+17 1.01903e+15 0 3.473e+17 2.78053e+17 0 
9476 2 186.686 2.63406e+18 3547.88 1125.27 595.094 102.217 147.586 -1.49325 1.6552e+18 1.63044e+15 0 5.64055e+17 4.13177e+17 0 
13572 2 99.8967 1.4095e+18 6159.57 1300.78 618.519 318.246 235.73 -2.59252 8.62254e+17 9.87673e+14 0 3.03372e+17 2.42889e+17 0 
17668 2 156.992 2.2151e+18 4035.23 1163.51 601.392 143.49 199.818 1.8782 1.39599e+18 1.81857e+15 0 4.68298e+17 3.48993e+17 0 
6404 2 82.3544 1.16199e+18 6708.87 1259.98 615.92 375.41 291.011 -1.24863 7.1981e+17 1.03471e+15 0 2.4546e+17 1.95685e+17 0 
10500 2 122.479 1.72813e+18 4633.18 1160.5 606.185 200.104 269.353 3.94995 1.08978e+18 1.47367e+15 0 3.63934e+17 2.72943e+17 0 
14596 2 64.4244 9.09004e+17 8038.54 1273.92 614.359 550.056 363.686 3.4917 5.67442e+17 8.77932e+14 0 1.89226e+17 1.51459e+17 0 
18692 2 86.8911 1.226e+18 6173.59 1248.23 621.292 398.072 352.738 -1.47778 7.69444e+17 1.44232e+15 0 2.60119e+17 1.94995e+17 0 
5260 2 48.6056 6.85806e+17 10732.7 1373.15 618.106 952.823 429.859 2.37414 4.30359e+17 6.42771e+14 0 1.43479e+17 1.11325e+17 0 
9356 2 57.5122 8.11475e+17 9448.84 1438.11 641.211 878.538 454.63 -0.99052 5.13778e+17 5.3303e+14 0 1.67199e+17 1.29965e+17 0 
13452 2 35.74 5.04278e+17 14057.5 1461.17 608.876 1502.26 477.835 -1.22234 3.24145e+17 3.29224e+14 0 9.86889e+16 8.11146e+16 0 
17548 2 39.5033 5.57377e+17 12261.1 1476.34 613.264 1365.03 518.272 3.28311 3.53869e+17 3.91934e+14 0 1.11858e+17 9.12579e+16 0 
6284 2 26.0967 3.68214e+17 15860.2 1428.19 597.627 1908.37 509.632 6.62594 2.36508e+17 2.19483e+14 0 7.05167e+16 6.09692e+16 0 
10380 2 27.7056 3.90915e+17 15092.7 1557.89 604.594 1907.09 545.317 1.65909 2.53221e+17 2.19483e+14 0 7.50161e+16 6.24586e+16 0 
14476 2 20.0767 2.83274e+17 17859.4 1371.84 593.008 2400.5 517.372 -0.970973 1.8794e+17 2.66515e+14 0 5.17509e+16 4.33165e+16 0 
18572 2 20.42 2.88118e+17 16850.8 1591.64 597.87 2389.01 553.981 -5.52599 1.88222e+17 2.03806e+14 0 5.45101e+16 4.51821e+16 0 
9348 2 484.548 6.83678e+18 2829.49 1232.77 620.815 75.5861 54.5532 -0.7076 4.4859e+18 5.37733e+15 0 1.36181e+18 9.83691e+17 0 
17540 2 348.909 4.92297e+18 2530.84 1110.81 594.835 22.5159 107.58 0.560583 3.17562e+18 3.77824e+15 0 1.02292e+18 7.20656e+17 0 
8 3 8.92333 1.57381e+16 8108.12 3469.76 1041.54 4836.92 -184.856 -13.9848 9.63569e+15 5.87901e+12 0 3.30596e+15 2.79057e+15 0 
7 3 8.15778 1.43879e+16 9002.16 3736.7 1113.73 4433.3 -330.226 -18.7065 8.74404e+15 9.79834e+12 0 3.07668e+15 2.55737e+15 0 
80 3 25.1544 8.87299e+16 5109.39 1504.03 464.574 6457.01 25.7051 -4.15506 6.97642e+16 2.74354e+13 0 9.89241e+15 9.04583e+15 0 
144 3 23.8478 8.41207e+16 4898.42 1449.02 456.587 6504.44 14.3586 -0.381062 6.64563e+16 3.5274e+13 0 9.40249e+15 8.22669e+15 0 
208 3 28.6744 1.01146e+17 4633.48 1326.12 426.575 6608.86 113.235 1.55043 8.19925e+16 1.95967e+13 0 1.00296e+16 9.10462e+15 0 
272 3 28.1478 9.92886e+16 4341.18 1274.45 392.04 6672.8 101.544 -6.63328 8.17339e+16 4.31127e+13 0 9.13206e+15 8.37954e+15 0 
88 3 27.5822 9.72936e+16 4014.17 1093.1 341.632 6833.19 138.115 2.78717 8.42697e+16 1.95967e+13 0 7.07048e+15 5.93388e+15 0 
152 3 27.03 9.53457e+16 3895.13 1065.78 333.647 6846.45 130.534 -3.89134 8.3184e+16 3.13547e+13 0 6.67071e+15 5.45964e+15 0 
216 3 26.1022 9.20731e+16 3489.76 827.621 282.23 6985.19 135.682 4.42757 8.33134e+16 1.95967e+13 0 4.56995e+15 4.17017e+15 0 
280 3 26.0356 9.18379e+16 3204.32 791.421 284.271 7015.64 129.851 0.625092 8.30508e+16 1.56773e+13 0 4.7032e+15 4.06827e+15 0 
96 3 24.8767 8.775e+16 2856.89 628.83 241.584 7119.99 125.191 1.99679 8.18867e+16 7.83867e+12 0 3.2217e+15 2.63379e+15 0 
160 3 25.3267 8.93374e+16 2721.02 639.159 237.052 7125.74 120.405 -0.00317262 8.35642e+16 1.1758e+13 0 3.11979e+15 2.64163e+15 0 
224 3 24.2178 8.54259e+16 2454.21 539.776 212.124 7198.6 105.902 -0.626111 8.14987e+16 1.1758e+13 0 2.14388e+15 1.77154e+15 0 
288 3 24.05 8.48341e+16 2156.1 483.583 206.641 7224.3 101.329 1.00657 8.07775e+16 1.1758e+13 0 2.22618e+15 1.81857e+15 0 
79 3 28.0522 9.89515e+16 5917.08 1901.39 542.289 6217.99 39.1969 5.62642 7.32524e+16 3.5274e+13 0 1.36158e+16 1.2048e+16 0 
143 3 26.3667 9.30059e+16 5464.21 1619.4 485.812 6346.93 32.6626 4.80888 7.09439e+16 3.91934e+13 0 1.16835e+16 1.03392e+16 0 
207 3 30.71 1.08327e+17 5530.66 1490.37 451.332 6464.23 159.511 1.91422 8.6684e+16 3.13547e+13 0 1.12955e+16 1.03157e+16 0 
271 3 29.6122 1.04454e+17 5046.74 1424.55 437.137 6544.07 131.46 6.53696 8.43324e+16 4.31127e+13 0 1.07194e+16 9.35938e+15 0 
87 3 28.2733 9.97315e+16 5099 1140.54 342.063 6711.11 178.123 1.57568 8.57198e+16 2.3516e+13 0 7.53689e+15 6.45123e+15 0 
151 3 27.8678 9.83009e+16 4465.45 1096.94 345.344 6785.65 155.708 -3.90959 8.51633e+16 3.91934e+13 0 6.95682e+15 6.1416e+15 0 
215 3 26.5189 9.35428e+16 4422.19 861.174 283.353 6906.04 167.163 -0.142189 8.45871e+16 3.13547e+13 0 4.77767e+15 4.14274e+15 3.91934e+12 
279 3 26.2678 9.26571e+16 3798.07 859.652 284.037 6961.5 150.958 0.118144 8.36857e+16 1.95967e+13 0 4.83646e+15 4.1153e+15 0 
95 3 25.4111 8.96352e+16 3649.29 637.601 230.96 7056.22 137.443 5.76111 8.35172e+16 0 0 3.35495e+15 2.76313e+15 0 
159 3 25.41 8.96313e+16 3302.7 600.922 245.013 7079.49 141.51 2.76063 8.338e+16 2.74354e+13 0 3.42942e+15 2.79449e+15 0 
223 3 24.4489 8.62411e+16 3070.66 496.588 208.988 7157.52 118.903 -3.52491 8.19533e+16 1.56773e+13 0 2.32809e+15 1.94399e+15 0 
287 3 24.1244 8.50967e+16 2663.24 488.411 201.439 7188.94 116.639 -0.0021041 8.0903e+16 0 0 2.20267e+15 1.99102e+15 0 
142 3 30.4911 1.07554e+17 6378.17 1892.5 570.924 6094.8 66.2291 -6.77355 7.78576e+16 4.31127e+13 0 1.55559e+16 1.40979e+16 0 
270 3 31.5778 1.11388e+17 6319.3 1522.32 465.772 6354.14 192.937 0.160059 8.83967e+16 1.95967e+13 0 1.20951e+16 1.08762e+16 0 
150 3 28.7556 1.01432e+17 5900.99 1152.43 366.349 6640.12 209.051 0.981106 8.69231e+16 3.13547e+13 0 7.87787e+15 6.60016e+15 0 
278 3 26.9389 9.50243e+16 5353.76 852.404 300.176 6828.13 192.253 -0.277617 8.52064e+16 1.56773e+13 0 5.24799e+15 4.55427e+15 0 
158 3 25.4056 8.96156e+16 4432.3 626.033 235.04 7000.04 152.416 4.80576 8.29489e+16 2.3516e+13 0 3.67634e+15 2.96694e+15 0 
286 3 24.2333 8.54807e+16 3336 476.497 204.288 7143.22 120.092 1.07031 8.08951e+16 1.95967e+13 0 2.44959e+15 2.11644e+15 0 
94 3 25.6089 9.03329e+16 5243.46 595.896 237.472 6938.34 166.668 -1.6237 8.32742e+16 3.91934e+12 0 3.67634e+15 3.37847e+15 0 
222 3 24.5156 8.64763e+16 4007.38 445.389 205.432 7091.43 125.389 1.72403 8.15536e+16 1.1758e+13 0 2.50838e+15 2.40255e+15 0 
6 3 6.20667 1.17912e+16 9492 3562.72 1036.76 3754.65 -594.467 -15.1111 6.79903e+15 0 0 2.66389e+15 2.32826e+15 0 
206 3 33.6089 1.18552e+17 8059 1762.71 509.853 6123.98 254.557 3.05464 9.33429e+16 3.5274e+13 0 1.3847e+16 1.13269e+16 0 
86 3 30.0156 1.05877e+17 7699.39 1263.47 378.91 6431.55 251.606 0.355052 8.91924e+16 1.95967e+13 0 9.0811e+15 7.58392e+15 0 
214 3 27.8211 9.81363e+16 6613.75 881.496 287.714 6713.22 210.241 -2.02165 8.717e+16 4.31127e+13 0 6.07105e+15 4.85214e+15 0 
1165 3 18.1478 1.28029e+17 8004.15 2357.04 693.71 5522.97 58.3724 -8.93402 8.46185e+16 3.91934e+13 0 2.30927e+16 2.02787e+16 0 
2189 3 19.7856 1.39583e+17 9137.06 2339.87 650.053 5520.38 237.464 2.39051 9.68076e+16 7.83867e+13 0 2.303e+16 1.96672e+16 0 
1293 3 18.8578 1.33038e+17 10227 1943.25 553.333 5691.66 317.846 4.01916 1.00116e+17 6.27094e+13 0 1.8319e+16 1.45407e+16 0 
2317 3 16.96 1.1965e+17 10544.2 1544.31 493.198 5880.74 340.279 -0.24572 9.39387e+16 8.62254e+13 0 1.41331e+16 1.14915e+16 0 
590 3 17.1367 1.20896e+17 7350.64 2100.19 621.002 5829.71 21.5647 -2.83304 8.45636e+16 1.01903e+14 0 1.90166e+16 1.72137e+16 0 
1102 3 15.0844 1.06418e+17 6901.51 2054.3 612.281 5906.55 12.895 8.08211 7.39187e+16 3.13547e+13 0 1.72294e+16 1.52384e+16 0 
1614 3 18.02 1.27128e+17 7934.5 2137.51 663.832 5739.83 191.544 -0.237355 8.92198e+16 6.27094e+13 0 2.04981e+16 1.7347e+16 0 
2126 3 17.1856 1.21241e+17 7130.23 2090.63 630.53 5897 151.623 2.46818 8.61549e+16 3.13547e+13 0 1.83503e+16 1.67042e+16 0 
5 3 166.262 2.84342e+18 2911.5 1019.21 576.328 109.312 188.099 -0.149804 1.88487e+18 2.6033e+15 0 5.61554e+17 3.94391e+17 0 
5 3 2.18556 1.55108e+16 8982.89 3151.56 931.509 2553.74 -659.564 27.7251 8.42172e+15 1.5771e+13 0 4.05315e+15 3.02015e+15 0 
85 3 34.11 1.2032e+17 14561.8 1178.38 386.316 5655.51 335.493 -1.30634 9.74308e+16 5.48707e+13 0 1.23224e+16 1.05117e+16 0 
149 3 31.59 1.11431e+17 10694 1213.48 366.707 6128.75 302.978 -0.591784 9.23318e+16 3.13547e+13 0 1.02373e+16 8.83027e+15 0 
213 3 28.8944 1.01922e+17 10570.4 798.03 285.803 6374.65 228.401 1.75154 8.90591e+16 3.13547e+13 0 6.75694e+15 6.07497e+15 0 
277 3 27.9211 9.8489e+16 8468.11 845.295 293.362 6551.38 231.192 -1.12075 8.6731e+16 3.13547e+13 0 6.13768e+15 5.58898e+15 0 
93 3 26.1078 9.20927e+16 7044.95 503.45 228.152 6813.11 155.954 0.424699 8.44343e+16 2.3516e+13 0 3.80568e+15 3.82919e+15 0 
157 3 25.8622 9.12265e+16 6502.33 612.557 235.808 6835.41 170.29 0.252729 8.37092e+16 7.83867e+12 0 3.97813e+15 3.53132e+15 0 
221 3 24.8733 8.77383e+16 5328.78 402.033 193.687 7008.58 119.466 2.60152 8.24197e+16 2.3516e+13 0 2.7161e+15 2.57892e+15 0 
285 3 24.6056 8.67937e+16 4507.12 479.176 200.448 7059.65 121.134 -3.65614 8.17574e+16 3.91934e+12 0 2.70826e+15 2.32417e+15 0 
2125 3 30.9711 2.18495e+17 15399.4 2134.87 688.112 3751.3 513.734 -5.22473 1.46889e+17 1.33257e+14 0 3.9695e+16 3.1778e+16 0 
653 3 21.3 1.50267e+17 9715.7 2471.73 755.583 5094.39 119.453 3.93036 9.80775e+16 1.09741e+14 0 2.76392e+16 2.4441e+16 0 
1677 3 22.1778 1.5646e+17 12001.1 2437.24 702.206 4923.7 361.09 7.59435 1.07445e+17 6.27094e+13 0 2.68318e+16 2.21207e+16 0 
717 3 29 2.04589e+17 18505.4 1584.72 556.501 3786.01 514.065 -2.02662 1.43706e+17 8.62254e+13 0 3.31654e+16 2.76313e+16 0 
1229 3 24.78 1.74818e+17 16323 1807 561.196 4477.59 493.953 -2.10108 1.25286e+17 1.25419e+14 0 2.64869e+16 2.29203e+16 0 
1741 3 22.0722 1.55715e+17 18334.3 1383.53 461.749 4549.64 449.138 3.51827 1.1504e+17 8.62254e+13 0 2.12663e+16 1.93223e+16 0 
2253 3 19.4589 1.37279e+17 15908.8 1530.18 514.964 5035.66 430.645 0.596434 1.03055e+17 8.62254e+13 0 1.84914e+16 1.5646e+16 0 
781 3 21.46 1.51396e+17 13045.6 1925.24 566.396 5234.46 406.496 1.53425 1.1254e+17 9.40641e+13 0 2.10625e+16 1.76997e+16 0 
1805 3 18.2178 1.28523e+17 13109.1 1584.5 470.066 5505.36 397.245 2.65278 9.89162e+16 6.27094e+13 0 1.59282e+16 1.36158e+16 0 
4685 3 68.9322 9.72607e+17 8020.75 1348.69 626.228 803.393 457.896 0.901169 6.24397e+17 4.07611e+14 0 1.98773e+17 1.49029e+17 0 
8781 3 66.6422 9.40296e+17 8003.2 1422.82 643.905 1013.5 450.866 2.62194 6.1681e+17 5.95739e+14 0 1.85259e+17 1.37631e+17 0 
12877 3 40.1756 5.66862e+17 11465.9 1617.79 654.92 1408.99 548.694 0.620814 3.62931e+17 2.9787e+14 0 1.14743e+17 8.88906e+16 0 