ITEM: TIMESTEP
23000
ITEM: NUMBER OF CELLS
246
ITEM: BOX BOUNDS oo ao pp
-10 10
0 10
-0.5 0.5
ITEM: CELLS id proc f_avg_n f_avg_nrho f_avg_temp_tra f_avg_temp_rot f_avg_temp_vib f_avg_vel[1] f_avg_vel[2] f_avg_vel[3] f_avg_nrho_CO2 f_avg_nrho_O2 f_avg_nrho_C2 f_avg_nrho_CO f_avg_nrho_O f_avg_nrho_C 
65 0 24.468 8.63085e+16 6495.99 200.465 156.532 6990.74 12.1446 -0.122139 8.15994e+16 1.7637e+13 0 2.00357e+15 2.68788e+15 0 
129 0 26.957 9.50882e+16 9902.8 301.674 176.833 6677.2 19.5059 -1.79208 8.65872e+16 1.7637e+13 0 3.85192e+15 4.63148e+15 0 
66 0 29.229 1.03102e+17 13851.5 406.464 211.835 6247.88 28.3826 -3.40598 8.98571e+16 2.82192e+13 0 6.02481e+15 7.19238e+15 0 
130 0 34.832 1.22867e+17 19092.2 549.655 269.389 5504.33 37.3756 0.386669 1.00136e+17 4.93837e+13 0 1.08362e+16 1.1845e+16 0 
579 0 29.853 2.10607e+17 16250.2 603.108 264.265 5863.96 55.8652 -6.92989 1.7606e+17 1.7637e+14 0 1.60144e+16 1.83566e+16 0 
1091 0 32.579 2.29839e+17 19379.7 677.28 291.524 5357.62 66.4384 6.19741 1.8327e+17 4.23288e+13 0 2.21098e+16 2.44167e+16 0 
1603 0 17.674 1.24687e+17 23864.2 748.15 358.218 4052.34 45.133 -8.7973 8.9843e+16 6.34933e+13 0 1.72137e+16 1.75665e+16 0 
2115 0 21.648 1.52722e+17 23848.8 855.884 417.545 3314.12 60.7683 -2.89355 1.05004e+17 4.23288e+13 0 2.36759e+16 2.40005e+16 0 
707 0 21.969 1.54987e+17 21651.7 706.972 309.987 4913.31 65.1044 -6.22559 1.1905e+17 7.76029e+13 0 1.75735e+16 1.82861e+16 0 
1219 0 24.887 1.75573e+17 23396.1 812.854 351.891 4225.03 84.8401 0.491053 1.28249e+17 3.5274e+13 0 2.33091e+16 2.39793e+16 0 
643 0 38.604 2.72344e+17 21655.5 898.658 361.833 4710.74 61.2365 -6.22504 2.03785e+17 1.19932e+14 0 3.47943e+16 3.36444e+16 0 
1667 0 27.7 1.95418e+17 22021.8 1020.83 465.378 2579.97 63.9032 -0.490436 1.25851e+17 6.34933e+13 0 3.55562e+16 3.39477e+16 0 
2179 0 37.476 2.64386e+17 19103.9 1142.59 522.615 1892.88 87.5814 1.38093 1.63037e+17 1.55206e+14 0 5.19022e+16 4.92919e+16 0 
771 0 29.971 2.1144e+17 23578.6 965.715 409.868 3536.4 107.302 -0.9342 1.47156e+17 1.12877e+14 0 3.17325e+16 3.2438e+16 0 
1283 0 38.342 2.70495e+17 21843.8 1154.47 488.444 2704.05 136.349 -1.82577 1.7733e+17 1.69315e+14 0 4.74365e+16 4.55599e+16 0 
5251 0 29.129 4.10999e+17 18444.4 905.265 358.753 5323.7 59.5655 5.33066 3.19018e+17 1.41096e+14 0 4.49956e+16 4.68439e+16 0 
9347 0 31.341 4.42209e+17 20884.6 1002.53 389.675 4768.16 53.2797 19.8155 3.28373e+17 1.83425e+14 0 5.76801e+16 5.59728e+16 0 
13443 0 19.422 2.74037e+17 22867.3 1103.25 488.741 3283.68 53.3595 -17.9216 1.83792e+17 1.12877e+14 0 4.51508e+16 4.49815e+16 0 
17539 0 22.791 3.21572e+17 22269.3 1211 495.294 2983.16 66.1164 7.35527 2.11771e+17 1.69315e+14 0 5.65654e+16 5.30663e+16 0 
4676 0 34.441 4.85949e+17 21775 1200.09 448.845 4265.63 44.9126 8.03446 3.48028e+17 2.96302e+14 0 7.23541e+16 6.52711e+16 0 
8772 0 38.761 5.46903e+17 21823.6 1472.53 497.533 3709.63 39.9875 2.12791 3.69347e+17 4.09179e+14 0 9.14726e+16 8.56736e+16 0 
12868 0 27.289 3.85037e+17 21199.6 1254.98 543.23 2637.87 67.8024 1.77654 2.46396e+17 1.83425e+14 0 6.99131e+16 6.85445e+16 0 
16964 0 32.015 4.51719e+17 18977.3 1358.82 579.671 2051.77 75.5279 -3.86834 2.80965e+17 3.10412e+14 0 8.76913e+16 8.27529e+16 0 
5188 0 46.679 6.58623e+17 21198.8 1531.48 540.97 3160.23 53.2898 3.98156 4.21624e+17 4.23288e+14 0 1.23784e+17 1.12792e+17 0 
9284 0 58.157 8.20573e+17 19707.3 1586.31 611.049 2568.42 37.1962 -8.12326 5.09696e+17 7.76029e+14 0 1.59989e+17 1.50112e+17 0 
13380 0 39.855 5.62339e+17 17137.1 1422.69 588.27 1726.82 81.2997 -0.347278 3.40126e+17 4.37398e+14 0 1.15276e+17 1.06499e+17 0 
17476 0 50.462 7.11999e+17 14384.4 1430.63 628.468 1266.44 79.649 -3.99155 4.23754e+17 6.20823e+14 0 1.54176e+17 1.33435e+17 1.41096e+13 
5700 0 24.248 3.4213e+17 16734 1162.75 545.523 1474.38 93.9403 -7.70556 2.072e+17 2.25754e+14 0 7.04775e+16 6.4227e+16 0 
9796 0 29.856 4.21257e+17 14514 1321.28 576.944 1159.24 95.7932 4.62085 2.52619e+17 2.82192e+14 0 8.89752e+16 7.93807e+16 0 
13892 0 24.077 3.39717e+17 16560.9 1174.5 528.303 1438.11 112.741 -2.61157 2.05478e+17 3.5274e+14 0 7.09008e+16 6.29853e+16 0 
17988 0 29.317 4.13652e+17 14158.5 1288.29 574.179 1106.03 135.542 -0.497297 2.47102e+17 2.68083e+14 0 8.62521e+16 8.00297e+16 0 
6212 0 37.576 5.30183e+17 12347.3 1302.21 604.197 867.703 100.975 -0.461851 3.16281e+17 4.23288e+14 0 1.12538e+17 1.0094e+17 0 
10308 0 48.758 6.87957e+17 9807.62 1312.36 617.531 566.612 105.715 -0.110708 4.05482e+17 5.92604e+14 0 1.51453e+17 1.30429e+17 0 
14404 0 37.247 5.25541e+17 11706.2 1344.67 602.512 792.445 143.038 1.26067 3.10764e+17 4.93837e+14 0 1.13399e+17 1.00884e+17 0 
18500 0 47.101 6.64577e+17 9743.85 1266.54 590.306 557.836 151.593 11.0578 3.93644e+17 6.06713e+14 0 1.43735e+17 1.26591e+17 0 
4804 0 24.929 3.51739e+17 19695.2 1176.77 524.755 2107.76 141.496 6.57886 2.24145e+17 2.25754e+14 0 6.63434e+16 6.10241e+16 0 
8900 0 29.717 4.19295e+17 17984.8 1229.68 550.704 1758.11 154.26 -1.4828 2.61324e+17 2.39863e+14 0 8.08481e+16 7.68833e+16 0 
12996 0 23.181 3.27075e+17 19897.3 1249.65 530.911 2160.82 189.315 6.63763 2.10332e+17 1.83425e+14 0 6.03468e+16 5.62127e+16 0 
17092 0 27.48 3.87732e+17 17676.7 1244.12 571.553 1747.82 195.426 2.18662 2.40386e+17 1.69315e+14 0 7.84636e+16 6.87138e+16 0 
5316 0 36.108 5.0947e+17 15054 1338.36 581.869 1317.77 177.409 1.37968 3.08944e+17 4.51508e+14 0 1.07275e+17 9.27989e+16 0 
9412 0 46.155 6.51229e+17 12843.4 1328.64 605.543 1026.09 189.11 1.53955 3.90879e+17 5.07946e+14 0 1.36906e+17 1.22937e+17 0 
13508 0 33.223 4.68764e+17 15766.1 1332.65 575.509 1429.98 219.772 -2.38943 2.88048e+17 3.24521e+14 0 9.61429e+16 8.42485e+16 0 
17604 0 40.786 5.75475e+17 13214.5 1328.78 598.271 1073.48 234.536 -1.52376 3.4735e+17 4.37398e+14 0 1.20172e+17 1.07515e+17 0 
4740 0 74.465 1.05067e+18 16461.5 1696.77 658.166 1854.64 44.9014 5.82918 6.26171e+17 8.32467e+14 0 2.2169e+17 2.01979e+17 0 
8836 0 105.804 1.49285e+18 12578.6 1757.55 700.02 1202.76 42.0476 0.74377 8.75784e+17 1.29808e+15 0 3.27047e+17 2.88725e+17 0 
12932 0 69.361 9.78657e+17 11141 1475.92 648.782 846.771 85.3949 0.302828 5.70621e+17 6.34933e+14 0 2.1781e+17 1.89591e+17 0 
17028 0 99.277 1.40076e+18 8049.8 1470.24 655.36 482.574 95.916 -0.769821 8.2585e+17 1.25576e+15 0 3.12415e+17 2.6124e+17 0 
5764 0 66.172 9.33661e+17 7863.65 1336.22 639.709 371.794 117.568 0.805002 5.4892e+17 7.1959e+14 0 2.10149e+17 1.73873e+17 0 
9860 0 92.166 1.30043e+18 5739.16 1285.56 625.027 176.602 135.067 1.34652 7.74815e+17 8.18358e+14 0 2.9197e+17 2.32823e+17 0 
13956 0 62.83 8.86507e+17 7797.53 1282.53 602.574 361.999 161.51 -0.227352 5.27573e+17 9.03015e+14 0 1.93076e+17 1.64956e+17 0 
18052 0 87.12 1.22923e+18 6015.63 1292.3 619.189 222.711 166.721 2.23888 7.36099e+17 1.15699e+15 0 2.71554e+17 2.2042e+17 0 
4868 0 58.75 8.2894e+17 9988.4 1348.36 609.717 675.148 195.173 2.27474 4.968e+17 7.4781e+14 0 1.78049e+17 1.53343e+17 0 
8964 0 79.414 1.1205e+18 7669.85 1342.45 620.847 438.639 201.401 2.02165 6.76316e+17 1.05822e+15 0 2.43744e+17 1.99383e+17 0 
13060 0 52.793 7.44889e+17 10708.3 1313.62 618.082 779.654 246.165 -0.759008 4.49053e+17 5.92604e+14 0 1.58536e+17 1.36708e+17 0 
17156 0 70.975 1.00143e+18 8575.79 1325.83 628.48 554.828 241.003 0.264597 6.07758e+17 8.32467e+14 0 2.15341e+17 1.77499e+17 0 
193 0 24.553 8.66083e+16 6541.79 215.309 157.47 6986.44 8.99307 1.65145 8.18463e+16 7.05481e+12 0 2.02826e+15 2.72668e+15 0 
5252 0 182.915 2.58086e+18 7366.34 1625.12 701.89 511.607 55.3885 -2.44908 1.54204e+18 2.24343e+15 0 5.70522e+17 4.66055e+17 0 
84 1 34.176 1.20553e+17 17892.7 794.047 318.179 5455.32 245.996 3.49059 9.83511e+16 5.64385e+13 0 1.12489e+16 1.08961e+16 0 
148 1 35.468 1.2511e+17 17139.9 970.248 350.433 5411 303.501 -0.638882 1.00746e+17 5.99659e+13 0 1.25152e+16 1.17886e+16 0 
212 1 28.734 1.01356e+17 12494.6 566.866 242.801 6281.3 175.86 -1.55792 8.89893e+16 1.7637e+13 0 5.84844e+15 6.501e+15 0 
276 1 28.919 1.02009e+17 11918.3 689.395 270.647 6276.23 207.379 1.37882 8.87812e+16 3.88014e+13 0 6.6421e+15 6.54686e+15 0 
92 1 25.948 9.15291e+16 8476.69 443.082 209.875 6727.32 124.794 -0.524179 8.37229e+16 7.05481e+12 0 3.80607e+15 3.99302e+15 0 
156 1 26.077 9.19841e+16 8001.23 501.266 219.947 6749.27 142.916 -2.25001 8.40651e+16 3.5274e+13 0 4.01771e+15 3.86603e+15 0 
220 1 24.314 8.57653e+16 5596.75 317.663 182.795 7014.38 90.8223 -0.384025 8.09327e+16 0 0 2.29987e+15 2.53268e+15 0 
284 1 24.619 8.68412e+16 5198.76 352.261 190.161 7030.02 97.9706 -0.115318 8.17758e+16 2.11644e+13 0 2.51857e+15 2.52562e+15 0 
588 1 37.194 2.62397e+17 21205.5 1187.71 513.015 2643.78 275.883 -1.72763 1.73929e+17 2.32809e+14 0 4.57293e+16 4.25052e+16 0 
1612 1 28.753 2.02847e+17 22151.9 1120.01 467.2 3102.57 314.645 1.99623 1.38655e+17 1.26987e+14 0 3.29248e+16 3.11399e+16 0 
2124 1 34.815 2.45613e+17 20488.4 1222.62 519.1 2624.72 378.736 -1.63158 1.64299e+17 1.9048e+14 0 4.29708e+16 3.81524e+16 0 
716 1 24.655 1.73936e+17 22404.7 969.584 409.69 4032.81 292.356 3.66541 1.26648e+17 1.19932e+14 0 2.47906e+16 2.23778e+16 0 
1228 1 27.635 1.9496e+17 22097.9 1067.04 445.654 3712.82 357.312 2.71042 1.40123e+17 1.12877e+14 0 2.87977e+16 2.59264e+16 0 
1740 1 19.976 1.40927e+17 21470.9 871.113 358.987 4619.01 284.839 0.0369737 1.07494e+17 5.64385e+13 0 1.69386e+16 1.64377e+16 0 
2252 1 21.267 1.50035e+17 21466.1 1047.47 402.686 4316.84 340.201 2.18829 1.12143e+17 1.12877e+14 0 1.97746e+16 1.80039e+16 0 
780 1 30.574 2.15694e+17 21028.9 1201.17 485.419 3428.11 426.558 -4.16132 1.50585e+17 1.19932e+14 0 3.44275e+16 3.05614e+16 0 
1804 1 22.365 1.57781e+17 20853.1 1193.77 412.895 4200.52 393.95 -7.03916 1.15692e+17 7.05481e+13 0 2.15807e+16 2.04378e+16 0 
5828 1 20.792 2.93367e+17 19552.3 1091.48 518.852 2048.47 220.347 -1.81368 1.86614e+17 1.55206e+14 0 5.5098e+16 5.15001e+16 0 
9924 1 24.89 3.51188e+17 17305 1256.44 562.419 1668.91 238.965 0.117539 2.18516e+17 2.11644e+14 0 6.94052e+16 6.30559e+16 0 
14020 1 19.209 2.71032e+17 19990.6 1178.01 510.67 2161.22 238.549 -2.37266 1.76427e+17 1.69315e+14 0 5.0075e+16 4.43606e+16 0 
18116 1 21.862 3.08464e+17 17889.1 1215.17 512.888 1784.57 271.245 3.39587 1.94501e+17 2.25754e+14 0 5.92181e+16 5.45196e+16 0 
6340 1 29.786 4.20269e+17 15783.3 1259.72 593.501 1442.66 252.373 0.865057 2.58305e+17 4.65617e+14 0 8.45025e+16 7.69962e+16 0 
10436 1 36.599 5.16398e+17 13239.8 1268.92 599.711 1090.66 269.088 -4.02038 3.12556e+17 4.65617e+14 0 1.08051e+17 9.53246e+16 0 
14532 1 26.708 3.7684e+17 16063 1272.78 564.806 1504.13 287.398 1.20216 2.34488e+17 3.8096e+14 0 7.56558e+16 6.63152e+16 0 
18628 1 31.707 4.47374e+17 14363.5 1301.74 574.707 1259.88 309.527 -2.29971 2.77536e+17 4.37398e+14 0 9.09506e+16 7.84495e+16 0 
5196 1 24.149 3.40733e+17 18518.1 1324.06 558.334 2005.46 315.14 -4.21005 2.18544e+17 2.68083e+14 0 6.5257e+16 5.66642e+16 0 
9292 1 27.886 3.93461e+17 16749.8 1363.38 576.048 1723.42 338.051 -0.255767 2.48061e+17 2.96302e+14 0 7.71937e+16 6.79096e+16 0 
13388 1 20.938 2.95427e+17 19669.7 1245.06 531.822 2332.94 333.343 -0.605156 1.91411e+17 1.41096e+14 0 5.55072e+16 4.83678e+16 0 
17484 1 23.963 3.38109e+17 18448 1280.88 541.577 2101.91 374.685 -5.78525 2.1781e+17 1.83425e+14 0 6.29007e+16 5.72145e+16 0 
4748 1 33.129 4.67437e+17 14980.4 1360.31 584.71 1445.26 373.237 -1.50302 2.94679e+17 3.10412e+14 0 9.37584e+16 7.86893e+16 0 
8844 1 39.883 5.62734e+17 13042.3 1326.63 602.991 1214.08 400.454 -0.132358 3.51358e+17 5.64385e+14 0 1.13992e+17 9.68202e+16 0 
12940 1 27.087 3.82187e+17 16692.6 1319.83 595.441 1810.93 406.557 -6.49483 2.43405e+17 2.96302e+14 0 7.61214e+16 6.23645e+16 0 
17036 1 31.286 4.41433e+17 15021.5 1375.13 579.176 1571.37 452.438 -4.50687 2.8057e+17 2.82192e+14 0 8.76066e+16 7.29749e+16 0 
5772 1 21.828 3.07985e+17 17898.8 1319.58 559.564 2095.3 439.611 13.595 2.00018e+17 1.26987e+14 0 5.65937e+16 5.12461e+16 0 
9868 1 23.645 3.33622e+17 16437.1 1405.89 585.387 1859.67 481.655 1.02488 2.15129e+17 2.68083e+14 0 6.36908e+16 5.45337e+16 0 
13964 1 18.301 2.5822e+17 19600.7 1336.08 538.843 2538.17 432.939 2.19988 1.72194e+17 2.39863e+14 0 4.58421e+16 3.99443e+16 0 
18060 1 19.283 2.72076e+17 18439.9 1405.35 568.654 2356.42 484.31 -1.50993 1.79065e+17 2.68083e+14 0 4.95953e+16 4.31472e+16 0 
5892 1 45.923 6.47956e+17 10806.7 1278.35 617.524 772.617 297.705 -2.42182 3.94237e+17 4.51508e+14 0 1.35593e+17 1.17674e+17 0 
9988 1 59.405 8.38182e+17 8319.67 1292.02 605.428 510.977 303.997 -0.435266 5.14098e+17 6.77262e+14 0 1.76243e+17 1.47163e+17 0 
14084 1 39.336 5.55016e+17 11897.2 1371.6 591.401 952.113 335.234 1.63498 3.39576e+17 5.36165e+14 0 1.14246e+17 1.00658e+17 0 
18180 1 49.727 7.01629e+17 9893.49 1308.82 599.549 748.259 352.357 -4.90644 4.24756e+17 3.6685e+14 0 1.48419e+17 1.28087e+17 0 
73 1 24.323 8.5797e+16 6456.09 211.043 155.788 6990.65 13.1947 -1.30733 8.12008e+16 0 0 1.89422e+15 2.70199e+15 0 
137 1 25.886 9.13104e+16 9279.34 271.788 176.212 6737.4 24.9013 1.38968 8.41321e+16 3.5274e+12 0 3.24521e+15 3.92953e+15 0 
201 1 24.091 8.49787e+16 5300.67 192.453 158.625 7084.07 17.311 0.673454 8.1155e+16 3.5274e+12 0 1.8025e+15 2.01767e+15 0 
265 1 24.74 8.7268e+16 7294.66 234.208 165.071 6911.55 27.2139 0.0734914 8.16241e+16 7.05481e+12 0 2.62439e+15 3.0124e+15 0 
81 1 23.744 8.37547e+16 4359.5 182.994 148.838 7158.39 14.1282 0.337002 8.06999e+16 0 0 1.31219e+15 1.74254e+15 0 
145 1 24.276 8.56313e+16 5874.85 231.276 161.065 7032.33 26.8417 -0.223829 8.12573e+16 3.5274e+12 0 1.74606e+15 2.62439e+15 0 
209 1 23.318 8.2252e+16 3467.61 172.656 148.512 7226.8 18.4369 0.379357 7.98357e+16 3.5274e+12 0 1.00178e+15 1.41096e+15 0 
273 1 24.15 8.51868e+16 4555.53 211.139 158.505 7135.19 25.623 0.628109 8.18887e+16 1.7637e+13 0 1.46035e+15 1.82014e+15 0 
89 1 23.258 8.20404e+16 2618.69 167.819 145.1 7290.11 15.3793 -0.269406 8.01955e+16 0 0 7.97193e+14 1.04764e+15 0 
153 1 23.257 8.20368e+16 3499.59 181.836 148.785 7220.54 22.3019 0.766715 7.94301e+16 0 0 1.13935e+15 1.4674e+15 0 
217 1 22.8 8.04248e+16 2059.03 157.579 142.192 7332.43 12.0347 0.320034 7.89821e+16 0 0 6.77262e+14 7.65447e+14 0 
281 1 23.351 8.23684e+16 2614.38 182.82 147.228 7287.38 18.6508 0.504206 8.04389e+16 0 0 8.71269e+14 1.05822e+15 0 
74 1 27.345 9.64569e+16 12868.9 364.164 205.906 6364.49 43.3927 -0.224333 8.54231e+16 1.41096e+13 0 5.16059e+15 5.85902e+15 0 
138 1 31.208 1.10083e+17 17507.1 518.063 250.386 5745.18 77.6284 2.1595 9.19629e+16 4.58562e+13 0 8.90669e+15 9.16772e+15 0 
202 1 26.468 9.33633e+16 10777.3 367.216 192.333 6574.23 49.5895 0.243967 8.46506e+16 1.7637e+13 0 4.06004e+15 4.63501e+15 0 
266 1 28.709 1.01268e+17 14269.8 448.181 221.024 6177.01 78.506 -3.48987 8.83474e+16 1.05822e+13 0 6.00717e+15 6.90313e+15 0 
82 1 25.335 8.93668e+16 8344.67 290.682 173.918 6808.48 45.8371 1.89866 8.29786e+16 1.41096e+13 0 3.07942e+15 3.2946e+15 0 
146 1 26.815 9.45873e+16 11198.6 357.36 199.874 6520.34 73.8968 -1.26124 8.53103e+16 2.11644e+13 0 4.44806e+15 4.80785e+15 0 
210 1 24.245 8.55219e+16 6496.73 243.992 168.967 6970.62 41.7967 0.0553795 8.06541e+16 1.05822e+13 0 2.28928e+15 2.56795e+15 0 
274 1 25.353 8.94303e+16 8072.03 307.577 181.761 6823.31 64.1348 0.496076 8.30139e+16 1.05822e+13 0 2.96655e+15 3.43922e+15 0 
90 1 23.952 8.44884e+16 4332.06 217.387 155.483 7154.19 33.8646 1.23466 8.13208e+16 3.5274e+12 0 1.36158e+15 1.8025e+15 0 
154 1 24.377 8.59875e+16 5595.72 261.718 169.582 7038.26 49.8528 2.24586 8.1543e+16 7.05481e+12 0 1.96476e+15 2.47271e+15 0 
218 1 23.277 8.21074e+16 3035.99 193.963 147.865 7254.21 24.9541 1.61088 7.98146e+16 3.5274e+12 0 9.48872e+14 1.34041e+15 0 
282 1 23.637 8.33772e+16 4215.3 223.11 155.625 7157.13 42.2192 -1.32453 8.02202e+16 7.05481e+12 0 1.44976e+15 1.70021e+15 0 
83 1 28.758 1.01441e+17 13960.4 454.811 227.339 6189.73 110.127 1.11156 8.87601e+16 2.46918e+13 0 6.29994e+15 6.35638e+15 0 
211 1 26.226 9.25097e+16 10011.2 369.546 196.724 6621 90.1319 0.0949726 8.38993e+16 2.82192e+13 0 4.1059e+15 4.47628e+15 0 
91 1 24.964 8.80581e+16 7023.59 297.874 181.532 6907.18 72.4629 -0.46008 8.26188e+16 0 0 2.55031e+15 2.88894e+15 0 
219 1 24.089 8.49716e+16 4596.49 263.668 163.464 7120 51.4781 2.64425 8.14372e+16 1.05822e+13 0 1.53442e+15 1.98946e+15 0 
75 1 37.183 1.31159e+17 21676.5 680.997 314.471 4901.58 126.805 -0.297397 1.02171e+17 5.64385e+13 0 1.44906e+16 1.44412e+16 0 
203 1 32.547 1.14806e+17 18242.4 576.655 270.386 5574.89 128.651 2.86053 9.48695e+16 2.11644e+13 0 9.4993e+15 1.04164e+16 0 
1731 1 17.676 1.24701e+17 22915.6 712.862 322.932 4548.22 95.7384 -0.400289 9.40265e+16 1.12877e+14 0 1.48151e+16 1.57463e+16 0 
2243 1 21.266 1.50028e+17 23826 852.264 378.004 3959.55 123.211 5.59938 1.08623e+17 1.05822e+14 0 2.05295e+16 2.07694e+16 0 
267 1 38.424 1.35537e+17 21351.1 819.357 336.06 4811.21 211.409 0.126687 1.05067e+17 7.40755e+13 0 1.54959e+16 1.48998e+16 0 
147 1 31.061 1.09565e+17 16624.1 620.147 269.113 5778.93 173.403 0.226745 9.22875e+16 2.11644e+13 0 8.62097e+15 8.63508e+15 0 
275 1 27.527 9.70988e+16 11582.2 508.174 229.126 6422.23 128.391 -1.36248 8.64073e+16 2.11644e+13 0 5.30874e+15 5.36165e+15 0 
155 1 25.59 9.02663e+16 7878.39 385.653 188.746 6812.88 94.262 -1.99725 8.34654e+16 1.7637e+13 0 3.31929e+15 3.46391e+15 0 
283 1 24.313 8.57618e+16 5089.19 282.293 169.978 7071.14 66.2515 0.0492331 8.17017e+16 1.41096e+13 0 1.85541e+15 2.19052e+15 0 
651 1 25.149 1.77421e+17 23246.5 917.032 406.212 3992.25 166.671 4.60784 1.28151e+17 5.64385e+13 0 2.47835e+16 2.44308e+16 0 
1163 1 29.973 2.11454e+17 22952.4 1072.12 435.175 3362.68 218.774 -0.834208 1.46451e+17 1.48151e+14 0 3.33763e+16 3.14786e+16 0 
1675 1 20.918 1.47572e+17 22993.3 870.613 369.237 4196.19 199.129 8.62994 1.08602e+17 1.05822e+14 0 1.98381e+16 1.90268e+16 0 
2187 1 24.549 1.73188e+17 23148.3 949.959 420.259 3711.71 245.04 2.16883 1.23523e+17 1.55206e+14 0 2.50869e+16 2.44237e+16 0 
1795 1 25.394 1.7915e+17 23463.5 974.76 421.522 3297.45 161.238 -0.251273 1.22923e+17 1.55206e+14 0 2.84944e+16 2.75772e+16 0 
2307 1 32.325 2.28047e+17 21626.5 1048.09 480.163 2563.79 200.437 5.47342 1.49738e+17 1.48151e+14 0 4.00572e+16 3.8103e+16 0 
257 1 25.976 9.16278e+16 10001.7 290.026 178.433 6668.7 16.4243 -0.382832 8.35889e+16 0 0 3.50977e+15 4.52919e+15 0 
194 1 28.402 1.00185e+17 14529 396.811 212.028 6176.43 29.9391 1.20098 8.70493e+16 1.7637e+13 0 6.09183e+15 7.02659e+15 0 
258 1 33.122 1.16835e+17 19391.9 567.198 258.385 5457.67 52.4569 -2.15584 9.51623e+16 1.41096e+13 0 1.04905e+16 1.11678e+16 0 
1292 2 30.77 2.17076e+17 19914.2 1390.37 518.593 3414.23 484.149 -1.53996 1.511e+17 9.17125e+13 0 3.56832e+16 3.02016e+16 0 
2316 2 22.44 1.5831e+17 19998.7 1283.54 463.698 4304.45 433.745 4.30442 1.17378e+17 8.46577e+13 0 2.13126e+16 1.95348e+16 0 
13444 2 164.127 2.31577e+18 5241.94 1385.86 656.15 213.78 119.407 -2.81862 1.40671e+18 1.58028e+15 0 5.09103e+17 3.98371e+17 0 
6276 2 142.04 2.00413e+18 3944.08 1222.98 620.339 50.3749 151.737 -0.231489 1.22834e+18 1.7637e+15 0 4.34802e+17 3.39223e+17 0 
14468 2 126.558 1.78568e+18 4364.12 1205.93 605.655 99.6564 156.828 1.84075 1.09812e+18 1.11466e+15 0 3.84769e+17 3.01678e+17 0 
5380 2 113.587 1.60267e+18 5451.79 1280.07 619.265 245.528 184.797 0.724664 9.78982e+17 1.05822e+15 0 3.44458e+17 2.78171e+17 0 
9476 2 186.743 2.63487e+18 3546.83 1122.31 594.885 102.935 146.857 -1.85134 1.65559e+18 1.80603e+15 0 5.64074e+17 4.13398e+17 0 
13572 2 99.802 1.40817e+18 6159.99 1297.8 619.357 316.642 234.877 -3.77785 8.62097e+17 1.22754e+15 0 3.03455e+17 2.41387e+17 0 
17668 2 156.824 2.21273e+18 4053.77 1169.86 600.831 146.776 200.187 1.66353 1.39286e+18 1.86247e+15 0 4.68538e+17 3.49467e+17 0 
6404 2 82.283 1.16098e+18 6661.36 1261.45 617.301 369.434 291.955 -2.36588 7.18786e+17 1.00178e+15 0 2.45564e+17 1.9563e+17 0 
10500 2 122.034 1.72185e+18 4652.75 1164.58 605.56 202.764 268.871 2.74215 1.08514e+18 1.48151e+15 0 3.63097e+17 2.72132e+17 0 
14596 2 64.339 9.07798e+17 8017.65 1263.86 613.752 545.753 362.368 3.84562 5.67164e+17 9.45344e+14 0 1.88956e+17 1.50733e+17 0 
18692 2 86.94 1.22669e+18 6145.47 1257.03 621.456 395.809 352.436 -2.51799 7.72177e+17 1.45329e+15 0 2.58742e+17 1.94318e+17 0 
5260 2 48.457 6.8371e+17 10739.5 1359.98 619.169 954.14 431.444 1.62839 4.29017e+17 5.92604e+14 0 1.41872e+17 1.12228e+17 0 
9356 2 57.425 8.10245e+17 9496.54 1436.29 640.133 883.662 452.523 -1.21167 5.14451e+17 4.79727e+14 0 1.65943e+17 1.29371e+17 0 
13452 2 35.633 5.02768e+17 14020.1 1467.35 607.589 1493.94 478.519 -0.712533 3.2335e+17 2.96302e+14 0 9.90213e+16 8.01003e+16 0 
17548 2 39.58 5.58459e+17 12341 1471.39 614.412 1380.13 514.128 4.7117 3.55591e+17 3.95069e+14 0 1.1179e+17 9.06825e+16 0 
6284 2 26.049 3.67541e+17 15970.2 1427.93 593.955 1921.72 509.087 7.43526 2.36957e+17 2.11644e+14 0 6.96874e+16 6.06855e+16 0 
10380 2 27.674 3.90469e+17 15113.3 1543.03 607.596 1915.99 544.209 -0.487657 2.52858e+17 2.25754e+14 0 7.47527e+16 6.26326e+16 0 
14476 2 20.141 2.84182e+17 17925.4 1404.02 584.653 2416.32 515.985 -4.51306 1.88603e+17 2.53973e+14 0 5.18387e+16 4.34858e+16 0 
18572 2 20.403 2.87878e+17 16857.4 1582.54 599.683 2395.37 551.372 -5.22899 1.88081e+17 1.83425e+14 0 5.43502e+16 4.52636e+16 0 
9348 2 484.921 6.84205e+18 2823.73 1228.99 621.225 74.7616 54.4397 -0.854656 4.49092e+18 5.4322e+15 0 1.36103e+18 9.84668e+17 0 
17540 2 349.389 4.92974e+18 2513.83 1106.25 595.027 19.8797 106.92 0.554353 3.18578e+18 3.79549e+15 0 1.02028e+18 7.19887e+17 0 
8 3 8.903 1.57022e+16 8063.34 3458.75 1021.66 4847.1 -183.421 -11.0249 9.6351e+15 5.29111e+12 0 3.31047e+15 2.75137e+15 0 
7 3 8.147 1.43689e+16 8960.54 3676.85 1099.13 4437.95 -332.345 -18.5722 8.74267e+15 1.41096e+13 0 3.08471e+15 2.52738e+15 0 
80 3 25.138 8.86719e+16 5106.98 1525.7 468.03 6454.18 26.0421 -5.83746 6.95816e+16 2.46918e+13 0 9.96492e+15 9.1007e+15 0 
144 3 23.868 8.41921e+16 4888.85 1445.41 453.288 6507.26 12.7148 1.15013 6.65586e+16 3.88014e+13 0 9.38289e+15 8.2118e+15 0 
208 3 28.742 1.01385e+17 4639.38 1320.24 425.064 6608.97 113.596 2.42518 8.22908e+16 3.5274e+13 0 1.00037e+16 9.05485e+15 0 
272 3 28.194 9.94516e+16 4327.51 1269.49 394.264 6674.69 103.57 -6.54245 8.18287e+16 4.58562e+13 0 9.17478e+15 8.40228e+15 0 
88 3 27.526 9.70953e+16 4004.9 1093.92 341.203 6834.08 137.883 2.59714 8.4058e+16 1.7637e+13 0 6.99837e+15 6.02128e+15 0 
152 3 26.888 9.48448e+16 3886.67 1050.27 337.624 6848.4 131.544 -4.63845 8.27353e+16 3.17466e+13 0 6.67032e+15 5.40751e+15 0 
216 3 26.141 9.22099e+16 3469.06 830.242 281.068 6989.08 135.261 3.82091 8.34972e+16 2.11644e+13 0 4.60326e+15 4.08826e+15 0 
280 3 26.059 9.19206e+16 3195.75 780.263 282.431 7017 128.64 1.48617 8.31832e+16 1.41096e+13 0 4.68086e+15 4.0424e+15 0 
96 3 24.906 8.78535e+16 2842.94 630.482 239.544 7122.65 124.212 0.570931 8.19874e+16 7.05481e+12 0 3.1923e+15 2.66672e+15 0 
160 3 25.336 8.93703e+16 2745.7 641.899 239.128 7122.6 121.708 1.08551 8.35254e+16 1.05822e+13 0 3.16761e+15 2.66672e+15 0 
224 3 24.221 8.54372e+16 2431.75 535.825 211.039 7201.03 105.633 -0.0634131 8.15677e+16 1.05822e+13 0 2.10586e+15 1.75312e+15 0 
288 3 23.965 8.45342e+16 2137.8 483.867 204.018 7226.32 100.401 -0.630623 8.05447e+16 1.05822e+13 0 2.19757e+15 1.78134e+15 0 
79 3 27.965 9.86438e+16 5886.75 1873.23 541.95 6224.47 38.9386 5.43873 7.32783e+16 3.17466e+13 0 1.35241e+16 1.18097e+16 0 
143 3 26.378 9.30459e+16 5441.83 1605.51 479.416 6353.31 31.901 3.26779 7.09608e+16 4.23288e+13 0 1.16016e+16 1.04411e+16 0 
207 3 30.649 1.08111e+17 5522.48 1488.29 452.493 6465.58 159.542 1.04218 8.63438e+16 4.23288e+13 0 1.13935e+16 1.03318e+16 0 
271 3 29.599 1.04408e+17 5051.04 1403.29 432.711 6542.93 132.42 5.81366 8.42873e+16 4.58562e+13 0 1.07057e+16 9.36878e+15 0 
87 3 28.314 9.98749e+16 5068.52 1148.55 337.385 6715.86 177.937 1.10455 8.5984e+16 2.46918e+13 0 7.49221e+15 6.37402e+15 0 
151 3 27.781 9.79948e+16 4442.57 1101.63 343.165 6789.42 155.048 -1.87675 8.49117e+16 4.23288e+13 0 6.8996e+15 6.14121e+15 0 
215 3 26.468 9.33633e+16 4393.84 859.568 281.853 6909.97 166.13 -1.52526 8.44249e+16 2.82192e+13 0 4.74436e+15 4.16234e+15 3.5274e+12 
279 3 26.199 9.24144e+16 3796.15 863.211 286.5 6960.78 151.364 0.414355 8.34372e+16 1.7637e+13 0 4.82902e+15 4.13059e+15 0 
95 3 25.397 8.95855e+16 3638.69 643.458 234.991 7055.67 137.612 5.19396 8.3409e+16 3.5274e+12 0 3.37573e+15 2.79723e+15 0 
159 3 25.382 8.95326e+16 3255.55 594.538 244.552 7084.74 139.605 1.7955 8.33561e+16 2.46918e+13 0 3.39336e+15 2.75843e+15 0 
223 3 24.465 8.62979e+16 3096.68 494.966 207.031 7154.57 120.338 -3.14445 8.18993e+16 1.7637e+13 0 2.37394e+15 2.00709e+15 0 
287 3 24.083 8.49505e+16 2642.08 485.758 201.509 7190.28 115.32 -0.42793 8.08058e+16 0 0 2.17288e+15 1.97182e+15 0 
142 3 30.515 1.07639e+17 6384.69 1911.4 569.296 6088.42 68.4734 -8.35329 7.77263e+16 4.23288e+13 0 1.56934e+16 1.41766e+16 0 
270 3 31.658 1.11671e+17 6314.62 1532.77 465.123 6355.08 192.92 -1.89284 8.86084e+16 1.7637e+13 0 1.21625e+16 1.0882e+16 0 
150 3 28.721 1.01311e+17 5900.29 1173.14 367.89 6638.94 210.425 1.09411 8.68023e+16 2.82192e+13 0 7.90844e+15 6.57155e+15 0 
278 3 26.894 9.4866e+16 5291.63 854.041 298.387 6834.76 190.252 -0.0822562 8.51833e+16 1.41096e+13 0 5.20998e+15 4.45864e+15 0 
158 3 25.446 8.97583e+16 4456.61 636.785 236.427 6997.23 154.241 4.12515 8.31127e+16 2.11644e+13 0 3.6685e+15 2.95596e+15 0 
286 3 24.261 8.55783e+16 3348.87 473.474 203.003 7142.48 120.052 2.16657 8.10315e+16 1.7637e+13 0 2.4198e+15 2.10939e+15 0 
94 3 25.614 9.03509e+16 5256.15 605.393 238.333 6936.22 168.635 -0.541194 8.31797e+16 7.05481e+12 0 3.74963e+15 3.41453e+15 0 
222 3 24.506 8.64426e+16 3996.52 445.237 205.867 7092.34 124.852 0.994924 8.15254e+16 1.41096e+13 0 2.49035e+15 2.41274e+15 0 
6 3 6.245 1.1864e+16 9510.25 3514.48 1031.96 3783.8 -595.378 -16.8889 6.89043e+15 1.89976e+12 0 2.67106e+15 2.30061e+15 0 
206 3 33.66 1.18732e+17 8038.76 1761.13 510.379 6125.35 252.821 2.59419 9.34021e+16 3.5274e+13 0 1.39191e+16 1.13759e+16 0 
86 3 29.975 1.05734e+17 7660.02 1246.19 381.451 6441.92 250.953 1.04417 8.9268e+16 1.7637e+13 0 8.98782e+15 7.46046e+15 0 
214 3 27.747 9.78749e+16 6603.65 883.162 289.965 6716.38 210.022 -1.21485 8.70669e+16 3.88014e+13 0 5.93662e+15 4.83254e+15 0 
1165 3 18.204 1.28426e+17 8014.73 2334.58 701.495 5516.99 58.0754 -7.36312 8.48623e+16 3.5274e+13 0 2.32033e+16 2.03249e+16 0 
2189 3 19.85 1.40038e+17 9136.4 2337.62 657.608 5528.38 236.75 3.13192 9.75186e+16 8.46577e+13 0 2.2907e+16 1.95277e+16 0 
1293 3 18.857 1.33033e+17 10201.9 1925.56 549.152 5710.29 314.834 5.86993 1.00355e+17 6.34933e+13 0 1.81167e+16 1.44976e+16 0 
2317 3 16.996 1.19904e+17 10545.1 1555.4 496.083 5876.85 342.165 0.835742 9.41605e+16 8.46577e+13 0 1.41167e+16 1.15417e+16 0 
590 3 17.146 1.20962e+17 7350.39 2097.09 625.13 5826.63 24.4878 -3.20896 8.43191e+16 9.87673e+13 0 1.92102e+16 1.73337e+16 0 
1102 3 15.09 1.06457e+17 6910.01 2049.09 607.092 5898.35 13.3117 8.26771 7.36522e+16 3.5274e+13 0 1.73972e+16 1.53724e+16 0 
1614 3 18.022 1.27142e+17 7940.82 2156.23 660.658 5740.93 190.358 1.31866 8.91516e+16 7.05481e+13 0 2.05154e+16 1.74042e+16 0 
2126 3 17.219 1.21477e+17 7114.17 2105.07 631.922 5894.33 153.131 2.85569 8.62803e+16 2.82192e+13 0 1.85048e+16 1.66635e+16 0 
5 3 166.285 2.84381e+18 2916.28 1018.14 576.887 109.606 187.918 0.259578 1.88599e+18 2.63371e+15 0 5.60108e+17 3.95073e+17 0 
5 3 2.206 1.56559e+16 8830.47 3129.26 910.496 2544.67 -657.026 16.9117 8.4028e+15 2.12909e+13 0 4.17301e+15 3.05879e+15 0 
85 3 34.071 1.20182e+17 14519.7 1163.28 385.849 5661.43 335.468 -0.470073 9.7247e+16 4.93837e+13 0 1.23882e+16 1.04976e+16 0 
149 3 31.598 1.11459e+17 10734.1 1219.55 371.367 6124.15 305.525 -0.109478 9.23404e+16 3.17466e+13 0 1.02753e+16 8.81145e+15 0 
213 3 28.938 1.02076e+17 10583.7 802.757 287.514 6368.69 229.231 1.28977 8.90352e+16 2.82192e+13 0 6.86785e+15 6.14474e+15 0 
277 3 27.936 9.85415e+16 8476.18 838.643 294.267 6552.67 232.965 0.0710916 8.68341e+16 3.5274e+13 0 6.07419e+15 5.59799e+15 0 
93 3 26.082 9.20017e+16 7063.51 513.149 226.749 6810.32 157.787 1.00519 8.42838e+16 2.46918e+13 0 3.8872e+15 3.80607e+15 0 
157 3 25.873 9.12645e+16 6518.07 601.218 234.335 6835.24 170.889 0.00591355 8.37582e+16 1.41096e+13 0 3.98949e+15 3.50271e+15 0 
221 3 24.895 8.78147e+16 5292.59 402.285 194.222 7011.18 118.703 1.95982 8.25412e+16 2.11644e+13 0 2.7161e+15 2.5362e+15 0 
285 3 24.585 8.67212e+16 4537.88 477.749 199.753 7056.52 121.18 -3.36887 8.17229e+16 3.5274e+12 0 2.65966e+15 2.33514e+15 0 
2125 3 30.992 2.18643e+17 15410.3 2124.38 684.77 3755.95 515.032 -5.90546 1.47206e+17 1.41096e+14 0 3.97679e+16 3.15279e+16 0 
653 3 21.283 1.50147e+17 9692.12 2470.73 753.837 5093.87 120.183 3.99022 9.79207e+16 1.12877e+14 0 2.78101e+16 2.43038e+16 0 
1677 3 22.236 1.56871e+17 11954.4 2435.28 706.285 4940.2 358.439 4.69285 1.07642e+17 7.05481e+13 0 2.69705e+16 2.21874e+16 0 
717 3 28.897 2.03863e+17 18499 1585.42 559.787 3793.65 511.573 -1.54591 1.43333e+17 9.17125e+13 0 3.29248e+16 2.75137e+16 0 
1229 3 24.87 1.75453e+17 16300.6 1823.01 565.547 4484.25 492.663 -2.90611 1.25738e+17 1.34041e+14 0 2.65049e+16 2.30763e+16 0 
1741 3 22.008 1.55262e+17 18269.8 1379.29 461.213 4575.23 446.937 3.46541 1.14739e+17 7.76029e+13 0 2.11221e+16 1.93231e+16 0 
2253 3 19.461 1.37294e+17 15928 1533.62 511.031 5025.24 437.474 1.73169 1.03127e+17 8.46577e+13 0 1.84765e+16 1.56052e+16 0 
781 3 21.502 1.51692e+17 13019.5 1932.48 566.287 5235.62 407.122 -1.33856 1.12411e+17 9.87673e+13 0 2.12844e+16 1.7898e+16 0 
1805 3 18.135 1.27939e+17 13064 1584.81 468.98 5511.88 397.008 3.75801 9.84498e+16 6.34933e+13 0 1.60567e+16 1.33689e+16 0 
4685 3 68.774 9.70375e+17 8014.52 1350.62 624 802.663 456.934 0.266775 6.23603e+17 4.51508e+14 0 1.97746e+17 1.48574e+17 0 
8781 3 66.309 9.35594e+17 8029.47 1420.17 644.201 1015.4 450.123 2.95638 6.15955e+17 5.64385e+14 0 1.83637e+17 1.35438e+17 0 
12877 3 40.295 5.68547e+17 11361.7 1607.06 650.327 1391.29 549.842 0.138524 3.64945e+17 2.96302e+14 0 1.14782e+17 8.85237e+16 0 