ITEM: TIMESTEP
19000
ITEM: NUMBER OF SURFS
134
ITEM: BOX BOUNDS oo ao pp
-10 10
0 10
-0.5 0.5
ITEM: SURFS id f_avg_pressure[1] f_avg_pressure[2] f_avg_pressure[3] f_avg_pressure[4] f_avg_shear[1] f_avg_shear[2] f_avg_shear[3] f_avg_heat_flux[*] f_avg_fdrag[*] 
1 0.96544 0.964808 0.0349237 0 0.0009133 -0.025231 -0.000937868 2888.81 0.00748211 
5 0.82991 0.829905 -0.00275652 0 9.62584e-05 0.0289805 0.000260888 2470.38 0.0578983 
9 0.538632 0.538137 -0.0230744 0 0.00198744 0.0463506 0.00324378 1598.77 0.0711656 
13 0.363126 0.361895 -0.029875 0 0.00354904 0.0429918 -0.00152782 1066.09 0.0707698 
17 0.266824 0.264845 -0.0324367 0 0.00463237 0.0378232 0.00290083 786.892 0.0688106 
21 0.284446 0.28075 -0.0457041 0 0.00702353 0.043144 0.000626963 856.719 0.0911515 
25 0.307045 0.30087 -0.0612703 0 0.011242 0.055204 0.00173913 915.575 0.117901 
29 0.325835 0.316464 -0.0775824 0 0.0169938 0.0693187 -5.98888e-05 993.958 0.146142 
33 0.341254 0.327971 -0.0942825 0 0.0245906 0.0855408 -0.00137844 1057.12 0.175647 
37 0.330218 0.313513 -0.103698 0 0.0322874 0.0976156 -0.000348327 1036.13 0.192766 
41 0.294036 0.275297 -0.10329 0 0.0372134 0.0991839 0.00373547 938.712 0.192486 
45 0.257868 0.237668 -0.100051 0 0.0401453 0.0953641 0.000221249 833.199 0.18712 
49 0.222322 0.201338 -0.0942868 0 0.0408658 0.0872639 -0.00259057 730.904 0.176863 
53 0.0695127 0.0328513 -0.0612601 0 0.0906462 0.0486099 0.00133079 399.842 0.0934974 
57 0.000601221 -0.000167269 -0.000577484 0 0.00104938 -0.000303954 7.25469e-05 2.61886 0.000673155 
61 2.74214e-05 -1.4731e-05 -2.31286e-05 0 6.777e-05 -4.31639e-05 -4.37464e-05 0.290306 4.02484e-05 
65 1.08458e-05 -5.82643e-06 -9.14785e-06 0 3.70257e-05 -2.35823e-05 -2.10383e-05 0.0655241 2.26154e-05 
69 0.000154839 -8.31793e-05 -0.0001306 0 0.000201733 -0.000128484 7.9313e-05 0.522254 8.19097e-05 
73 0.00034714 -0.000186486 -0.000292795 0 0.000602314 -0.000383624 0.000289405 2.41373 0.000273166 
77 3.21486e-05 -1.72702e-05 -2.71159e-05 0 0.00022493 -0.000143258 7.34015e-05 0.472551 0.000129363 
81 9.02396e-05 -4.84774e-05 -7.61125e-05 0 0.000202432 -0.000128933 -1.52818e-05 0.916685 9.06751e-05 
85 0 0 0 0 0 0 0 0 0 
89 0 0 0 0 0 0 0 0 0 
93 0.000199582 -0.00010722 -0.000168336 0 0.00027033 -0.000172184 8.72589e-05 0.248901 7.94437e-05 
97 0 0 0 0 0 0 0 0 0 
101 0 0 0 0 0 0 0 0 0 
105 0 0 0 0 0 0 0 0 0 
109 0 0 0 0 0 0 0 0 0 
113 6.95441e-05 -3.73596e-05 -5.8657e-05 0 0.000637588 -0.00040609 -4.93653e-05 1.89259 0.000190379 
117 0 0 0 0 0 0 0 0 0 
121 0 0 0 0 0 0 0 0 0 
125 0 0 0 0 0 0 0 0 0 
129 0 0 0 0 0 0 0 0 0 
133 0 0 0 0 0 0 0 0 0 
2 0.990325 0.989983 0.0260376 0 0.000200871 -0.00763736 -0.000817309 2984.63 0.0230172 
6 0.745504 0.745439 -0.00984316 0 0.000490155 0.0371203 0.00298974 2208.03 0.0635991 
10 0.502999 0.5023 -0.0265074 0 0.00251133 0.0475883 0.00328186 1495.61 0.0743311 
14 0.353987 0.352482 -0.0326006 0 0.00417344 0.0451238 0.00263324 1053.26 0.0745767 
18 0.265912 0.263608 -0.0349322 0 0.00531432 0.0401033 -0.00253802 774.295 0.072805 
22 0.269221 0.265281 -0.0458864 0 0.00738296 0.0426828 -5.1645e-05 800.551 0.0905347 
26 0.309745 0.302891 -0.0648027 0 0.0127426 0.0595593 0.00100325 938.65 0.124019 
30 0.351633 0.340678 -0.0870915 0 0.0209118 0.0818009 -0.000660336 1092.8 0.16391 
34 0.330848 0.317053 -0.0945401 0 0.02655 0.0890391 0.00249907 1027.79 0.176292 
38 0.300351 0.284212 -0.0971301 0 0.0319423 0.0934662 -0.00108842 944.401 0.180887 
42 0.256746 0.239481 -0.0925606 0 0.0339597 0.0878636 -0.000598491 810.35 0.172382 
46 0.26176 0.240239 -0.10394 0 0.0429624 0.0992995 0.00284956 862.678 0.194792 
50 0.220015 0.193299 -0.105081 0 0.0530533 0.0975931 -0.00122652 743.56 0.178937 
54 0.0354178 0.0104222 -0.0338496 0 0.0775472 0.0238766 -0.00111741 298.683 0.0670971 
58 0.000387523 -0.000177401 -0.000344532 0 0.000728697 -0.000375209 5.0845e-05 2.02995 0.000417695 
62 6.57221e-05 -3.53064e-05 -5.54334e-05 0 0.000136397 -8.68732e-05 -4.64891e-05 0.350929 7.58532e-05 
66 0 0 0 0 0 0 0 0 0 
70 0.00040979 -0.000220142 -0.000345637 0 0.000650827 -0.000414523 -0.000308904 1.59488 0.0002939 
74 0.000369235 -0.000198356 -0.000311431 0 0.000722643 -0.000460264 0.000231784 2.10398 0.000339963 
78 7.06027e-05 -3.79293e-05 -5.95492e-05 0 5.89861e-05 -3.75707e-05 7.82856e-05 0.334335 1.29386e-05 
82 0.000162985 -8.75593e-05 -0.000137468 0 0.000305039 -0.000194292 -0.000135678 1.06689 0.000126244 
86 8.02303e-05 -4.31007e-05 -6.767e-05 0 3.98513e-05 -2.53822e-05 3.08263e-06 0.025778 -1.77587e-06 
90 0 0 0 0 0 0 0 0 0 
94 0 0 0 0 0 0 0 0 0 
98 4.91707e-05 -2.64147e-05 -4.14731e-05 0 0.00015741 -0.000100256 1.78669e-05 0.119341 5.8238e-05 
102 0 0 0 0 0 0 0 0 0 
106 0 0 0 0 0 0 0 0 0 
110 0 0 0 0 0 0 0 0 0 
114 0 0 0 0 0 0 0 0 0 
118 0 0 0 0 0 0 0 0 0 
122 0 0 0 0 0 0 0 0 0 
126 0 0 0 0 0 0 0 0 0 
130 0 0 0 0 0 0 0 0 0 
134 0 0 0 0 0 0 0 0 0 
3 0.910495 0.910372 0.0149523 0 -9.0385e-05 0.00550309 0.00192515 2686.81 0.0352708 
7 0.647216 0.647044 -0.0149438 0 0.00103481 0.0448059 -0.00373253 1906.07 0.0653033 
11 0.462009 0.461104 -0.0289053 0 0.00269462 0.0429852 0.000309763 1361.46 0.0754717 
15 0.321612 0.319937 -0.0327848 0 0.00420037 0.0409901 -2.63358e-05 953.104 0.0727794 
19 0.274324 0.271577 -0.0387226 0 0.00592991 0.0415889 -0.00118657 802.8 0.0793921 
23 0.291955 0.287179 -0.0525942 0 0.00879139 0.0480034 0.000111495 873.982 0.102791 
27 0.330882 0.322859 -0.0724227 0 0.0136152 0.0606961 -0.00242084 1007.31 0.137305 
31 0.331594 0.320434 -0.0853001 0 0.0213651 0.080259 -2.84237e-05 1031.46 0.160067 
35 0.31775 0.303588 -0.0938026 0 0.0273572 0.0885404 0.000656421 985.491 0.17471 
39 0.30017 0.283067 -0.0998754 0 0.033814 0.0958358 0.00165438 963.09 0.185942 
43 0.241019 0.223942 -0.0891077 0 0.0329326 0.0827648 -0.00111691 750.361 0.165646 
47 0.234993 0.21474 -0.0954378 0 0.0392111 0.0882271 0.00242966 769.654 0.178276 
51 0.165375 0.127391 -0.105453 0 0.0793249 0.0958274 -0.000329366 640.998 0.152663 
55 0.0104027 0.00109185 -0.0103453 0 0.0348838 0.00368168 0.00088563 124.027 0.0275468 
59 4.78692e-05 -2.57157e-05 -4.03753e-05 0 9.32214e-05 -5.93744e-05 7.91985e-06 0.413334 5.23731e-05 
63 0.000110269 -5.92365e-05 -9.30069e-05 0 0.000239249 -0.000152379 -5.05347e-05 0.639821 0.000133546 
67 0.000168227 -9.03729e-05 -0.000141891 0 0.000589114 -0.000375217 -8.21307e-06 1.33374 0.000353051 
71 0 0 0 0 0 0 0 0 0 
75 0 0 0 0 0 0 0 0 0 
79 5.49538e-06 -2.95216e-06 -4.63507e-06 0 6.68738e-05 -4.25931e-05 -1.24941e-05 0.371191 3.87339e-05 
83 3.00185e-05 -1.61259e-05 -2.53193e-05 0 5.36333e-05 -3.41591e-05 -2.85576e-06 0.0498952 2.14541e-05 
87 3.83046e-05 -2.05776e-05 -3.2308e-05 0 2.59296e-05 -1.6515e-05 -4.85204e-05 0.0563808 2.87944e-06 
91 0.000211444 -0.00011359 -0.000178342 0 0.000408842 -0.0002604 -0.000238042 1.49337 0.000148818 
95 0 0 0 0 0 0 0 0 0 
99 0 0 0 0 0 0 0 0 0 
103 0.000127829 -6.86707e-05 -0.000107818 0 0.000426152 -0.000271422 2.78411e-05 1.63169 0.000143748 
107 0 0 0 0 0 0 0 0 0 
111 0 0 0 0 0 0 0 0 0 
115 0 0 0 0 0 0 0 0 0 
119 0 0 0 0 0 0 0 0 0 
123 0 0 0 0 0 0 0 0 0 
127 0 0 0 0 0 0 0 0 0 
131 0 0 0 0 0 0 0 0 0 
4 0.907128 0.907108 0.00593469 0 -0.000105333 0.0161 0.00241023 2715.6 0.0492063 
8 0.599844 0.599518 -0.0197667 0 0.00151807 0.0460426 0.00167949 1778.21 0.0698787 
12 0.400771 0.399719 -0.0290191 0 0.00332149 0.0457514 -0.00186356 1170.77 0.0718197 
16 0.309433 0.307494 -0.0345831 0 0.00480576 0.0427303 -9.61501e-06 915.246 0.074936 
20 0.279013 0.275818 -0.0421065 0 0.00649263 0.0425298 0.00074881 822.758 0.0850963 
24 0.286271 0.281065 -0.0543487 0 0.00938933 0.048557 0.00380757 859.614 0.1053 
28 0.324386 0.315805 -0.0741138 0 0.0154671 0.0659067 -0.000872704 982.913 0.14019 
32 0.326038 0.314223 -0.0869764 0 0.0214616 0.0775351 -0.00110859 993.955 0.162224 
36 0.300247 0.285977 -0.0914648 0 0.0279154 0.0872811 0.00119299 928.54 0.170347 
40 0.302576 0.284329 -0.103485 0 0.0352887 0.0969565 -0.00103708 960.818 0.192214 
44 0.252342 0.233529 -0.0956092 0 0.0368381 0.0899783 -0.000688614 795.637 0.178235 
48 0.251603 0.228899 -0.104446 0 0.0454847 0.0996821 -0.000395342 826.709 0.196501 
52 0.117037 0.0741172 -0.0905777 0 0.0944441 0.0772809 -0.000338145 526.765 0.126237 
56 0.00206905 -0.000182704 -0.00206097 0 0.00379276 -0.000336227 -0.000182 11.105 0.00276459 
60 5.16471e-05 -2.77455e-05 -4.35616e-05 0 6.49903e-05 -4.13939e-05 5.31577e-05 0.224834 2.85802e-05 
64 0.00016284 -8.74819e-05 -0.000137346 0 0.000108931 -6.93832e-05 -3.53498e-05 0.472602 1.57302e-05 
68 3.52495e-05 -1.89368e-05 -2.97309e-05 0 8.11852e-05 -5.171e-05 4.83189e-05 0.314577 4.35363e-05 
72 0.000458579 -0.000246352 -0.000386789 0 0.000653605 -0.000416292 0.00026064 2.27174 0.000270993 
76 5.83551e-05 -3.13489e-05 -4.92196e-05 0 0.000109483 -6.97317e-05 -6.66547e-05 0.164709 4.93368e-05 
80 6.13228e-05 -3.29426e-05 -5.17231e-05 0 0.000175118 -0.000111533 4.75835e-05 0.588166 8.49461e-05 
84 4.18758e-05 -2.2496e-05 -3.53201e-05 0 0.000105179 -6.69908e-05 0.000107531 0.477012 4.65913e-05 
88 5.85594e-05 -3.14587e-05 -4.93919e-05 0 2.21519e-05 -1.4109e-05 1.94779e-05 0.0531984 -4.92808e-06 
92 0 0 0 0 0 0 0 0 0 
96 0.000132375 -7.11123e-05 -0.000111652 0 0.000355675 -0.000226533 -0.000200498 0.636629 0.000131346 
100 0 0 0 0 0 0 0 0 0 
104 0 0 0 0 0 0 0 0 0 
108 0 0 0 0 0 0 0 0 0 
112 0 0 0 0 0 0 0 0 0 
116 0 0 0 0 0 0 0 0 0 
120 0 0 0 0 0 0 0 0 0 
124 0 0 0 0 0 0 0 0 0 
128 0 0 0 0 0 0 0 0 0 
132 0 0 0 0 0 0 0 0 0 
