ITEM: TIMESTEP
23000
ITEM: NUMBER OF SURFS
134
ITEM: BOX BOUNDS oo ao pp
-10 10
0 10
-0.5 0.5
ITEM: SURFS id f_avg_pressure[1] f_avg_pressure[2] f_avg_pressure[3] f_avg_pressure[4] f_avg_shear[1] f_avg_shear[2] f_avg_shear[3] f_avg_heat_flux[*] f_avg_fdrag[*] 
1 0.952164 0.951541 0.0344435 0 0.00092761 -0.0256263 -0.000347429 2848.7 0.00737943 
5 0.789315 0.789311 -0.00262169 0 9.46213e-05 0.0284876 -0.000369271 2339.5 0.0550665 
9 0.539895 0.539399 -0.0231286 0 0.00195678 0.0456356 0.00256149 1603.54 0.0713279 
13 0.363982 0.362748 -0.0299455 0 0.00372299 0.045099 -0.00135829 1064.66 0.0709687 
17 0.276722 0.274669 -0.0336399 0 0.00464495 0.0379259 0.000468465 812.07 0.0713224 
21 0.289653 0.285889 -0.0465408 0 0.00745928 0.0458206 0.00149095 867.058 0.0929173 
25 0.299708 0.29368 -0.0598062 0 0.0111273 0.0546409 0.00261916 898.023 0.115141 
29 0.333313 0.323727 -0.0793629 0 0.0176307 0.0719166 -0.000521573 1016.13 0.149604 
33 0.350461 0.33682 -0.0968263 0 0.0257656 0.0896281 -0.00144331 1092.36 0.180641 
37 0.324218 0.307817 -0.101814 0 0.0322269 0.0974326 1.83909e-05 1016.79 0.189557 
41 0.288951 0.270535 -0.101504 0 0.036492 0.0972611 0.00237377 923.966 0.189109 
45 0.258997 0.238708 -0.100489 0 0.0400993 0.095255 -7.02891e-05 835.502 0.18779 
49 0.222302 0.20132 -0.0942784 0 0.0415716 0.088771 -0.000632251 737.154 0.177365 
53 0.0719172 0.0339877 -0.0633792 0 0.0947498 0.0508105 0.00109622 418.167 0.0974645 
57 0.000626676 -0.000174351 -0.000601934 0 0.00107521 -0.000311435 8.58233e-05 2.63584 0.000687461 
61 6.63334e-05 -3.56348e-05 -5.59489e-05 0 0.000137968 -8.78744e-05 -7.36663e-05 0.345157 7.76552e-05 
65 0.000105282 -5.65584e-05 -8.88001e-05 0 0.000108908 -6.93657e-05 -6.41825e-05 0.276466 3.7947e-05 
69 9.29034e-05 -4.99076e-05 -7.83598e-05 0 0.00012104 -7.70906e-05 4.75878e-05 0.313352 4.91458e-05 
73 0.000208284 -0.000111892 -0.000175677 0 0.000361388 -0.000230175 0.000173643 1.44824 0.0001639 
77 1.92892e-05 -1.03621e-05 -1.62696e-05 0 0.000134958 -8.59551e-05 4.40409e-05 0.283531 7.76178e-05 
81 8.36419e-05 -4.49331e-05 -7.05477e-05 0 0.000168637 -0.000107408 -2.06663e-05 0.571307 7.28582e-05 
85 0 0 0 0 0 0 0 0 0 
89 0 0 0 0 0 0 0 0 0 
93 0.000241168 -0.000129561 -0.000203411 0 0.000379488 -0.000241711 -8.84716e-05 0.52856 0.000121728 
97 0 0 0 0 0 0 0 0 0 
101 0 0 0 0 0 0 0 0 0 
105 0 0 0 0 0 0 0 0 0 
109 0 0 0 0 0 0 0 0 0 
113 4.17265e-05 -2.24158e-05 -3.51942e-05 0 0.000382553 -0.000243654 -2.96192e-05 1.13556 0.000114228 
117 0 0 0 0 0 0 0 0 0 
121 0 0 0 0 0 0 0 0 0 
125 0 0 0 0 0 0 0 0 0 
129 0 0 0 0 0 0 0 0 0 
133 0 0 0 0 0 0 0 0 0 
2 1.0089 1.00856 0.0265261 0 0.000270133 -0.0102708 -0.00155927 3037.5 0.0234506 
6 0.738289 0.738225 -0.0097479 0 0.000476174 0.0360615 0.00300241 2189.39 0.0629828 
10 0.494193 0.493506 -0.0260433 0 0.00249816 0.0473387 0.00252599 1461.12 0.0730343 
14 0.343529 0.342069 -0.0316375 0 0.00422253 0.0456547 0.000822026 1015.43 0.0724095 
18 0.270557 0.268212 -0.0355424 0 0.00550304 0.0415274 -0.00149839 792.428 0.0741026 
22 0.267738 0.26382 -0.0456336 0 0.00746003 0.0431284 0.00160934 798.776 0.0900751 
26 0.311739 0.30484 -0.0652197 0 0.0128257 0.059948 0.00158549 944.017 0.124818 
30 0.350952 0.340017 -0.0869227 0 0.0206313 0.0807039 -0.00175968 1087.78 0.163483 
34 0.331118 0.317311 -0.094617 0 0.0261763 0.087786 0.0013518 1026.61 0.176232 
38 0.295811 0.279916 -0.0956618 0 0.0312025 0.0913015 -0.000203613 929.446 0.178006 
42 0.265551 0.247694 -0.095735 0 0.0350694 0.0907345 -0.000632021 846.226 0.178259 
46 0.257483 0.236314 -0.102242 0 0.0422656 0.0976891 0.00200381 845.726 0.191613 
50 0.224195 0.196972 -0.107077 0 0.0542355 0.0997678 -0.000939161 768.005 0.182463 
54 0.03382 0.00995204 -0.0323226 0 0.0742169 0.0228512 -0.000667608 284.504 0.0641983 
58 0.000351914 -0.0001611 -0.000312874 0 0.000676774 -0.000348473 1.05708e-05 2.02243 0.000390706 
62 0.000174813 -9.39108e-05 -0.000147446 0 0.000282548 -0.000179959 -5.36483e-05 0.876176 0.000141544 
66 7.59766e-05 -4.08143e-05 -6.4083e-05 0 6.16861e-05 -3.92877e-05 -1.28254e-05 0.103152 1.49524e-05 
70 0.000261854 -0.00014067 -0.000220861 0 0.000483101 -0.000307696 -0.000218854 1.36136 0.000233676 
74 0.000221541 -0.000119014 -0.000186858 0 0.000433586 -0.000276159 0.00013907 1.26239 0.000203978 
78 0.000118498 -6.36599e-05 -9.99462e-05 0 0.000224061 -0.000142714 6.65508e-05 0.540382 9.85603e-05 
82 0.000205054 -0.00011016 -0.000172951 0 0.000285731 -0.000181994 -5.37123e-05 0.901642 0.000101916 
86 4.81382e-05 -2.58604e-05 -4.0602e-05 0 2.39108e-05 -1.52293e-05 1.84958e-06 0.0154668 -1.06552e-06 
90 3.47234e-05 -1.86537e-05 -2.92875e-05 0 4.30424e-05 -2.74145e-05 -1.60871e-05 0.0895196 1.24999e-05 
94 0 0 0 0 0 0 0 0 0 
98 6.74564e-05 -3.62379e-05 -5.68962e-05 0 0.00014301 -9.10852e-05 2.9812e-05 0.172991 4.74691e-05 
102 0 0 0 0 0 0 0 0 0 
106 0 0 0 0 0 0 0 0 0 
110 8.01978e-05 -4.30826e-05 -6.76431e-05 0 0.000179508 -0.000114331 -5.8785e-06 0.720351 4.67474e-05 
114 0 0 0 0 0 0 0 0 0 
118 0 0 0 0 0 0 0 0 0 
122 0 0 0 0 0 0 0 0 0 
126 0 0 0 0 0 0 0 0 0 
130 0 0 0 0 0 0 0 0 0 
134 0 0 0 0 0 0 0 0 0 
3 0.918669 0.918545 0.0150866 0 -8.53213e-05 0.00519479 0.000906418 2729 0.0355877 
7 0.657557 0.657382 -0.0151825 0 0.000991146 0.0429153 -0.00148568 1947.19 0.0663405 
11 0.464663 0.463752 -0.0290713 0 0.00289247 0.0461413 0.000239926 1372.9 0.0759349 
15 0.320212 0.318544 -0.0326421 0 0.00422358 0.0412166 0.000453981 951.309 0.0724719 
19 0.263926 0.261283 -0.0372548 0 0.00565587 0.0396669 -0.00125465 772.138 0.0763686 
23 0.289585 0.284848 -0.0521673 0 0.0089377 0.0488023 0.000141652 866.456 0.102032 
27 0.323498 0.315654 -0.0708065 0 0.0136842 0.0610039 -0.00120775 978.327 0.134393 
31 0.33058 0.319455 -0.0850394 0 0.0210387 0.079033 0.00158616 1032.3 0.159455 
35 0.318097 0.30392 -0.093905 0 0.0270176 0.0874413 -0.00185975 990.865 0.174706 
39 0.29706 0.280134 -0.0988405 0 0.0334723 0.0948674 0.000686902 953.191 0.18402 
43 0.245472 0.22808 -0.0907542 0 0.033815 0.0849825 -0.00226913 773.671 0.168884 
47 0.236355 0.215985 -0.0959908 0 0.0400112 0.0900275 0.00228403 770.114 0.179711 
51 0.167646 0.129141 -0.106902 0 0.0801159 0.0967829 -0.000358446 650.219 0.154539 
55 0.00942257 0.000988976 -0.00937052 0 0.0323698 0.00341635 0.000761847 114.458 0.025543 
59 5.49033e-05 -2.94945e-05 -4.63082e-05 0 0.000106083 -6.75662e-05 -1.56239e-06 0.377984 5.94199e-05 
63 0.000103946 -5.584e-05 -8.76741e-05 0 0.000230563 -0.000146846 -7.08548e-05 0.615535 0.000129622 
67 0.000196027 -0.000105307 -0.000165339 0 0.000591744 -0.000376892 -9.50659e-05 1.78364 0.000344341 
71 2.91481e-05 -1.56589e-05 -2.45848e-05 0 2.30385e-05 -1.4674e-05 -1.28138e-05 0.0761363 4.97333e-06 
75 1.21298e-05 -6.51625e-06 -1.02308e-05 0 7.28631e-05 -4.64083e-05 3.26524e-05 0.189022 4.24588e-05 
79 3.29723e-06 -1.7713e-06 -2.78104e-06 0 4.01243e-05 -2.55559e-05 -7.49644e-06 0.222715 2.32404e-05 
83 1.80111e-05 -9.67552e-06 -1.51916e-05 0 3.218e-05 -2.04955e-05 -1.71346e-06 0.0299371 1.28724e-05 
87 2.29828e-05 -1.23465e-05 -1.93848e-05 0 1.55578e-05 -9.90901e-06 -2.91122e-05 0.0338285 1.72767e-06 
91 0.000126866 -6.81537e-05 -0.000107005 0 0.000245305 -0.00015624 -0.000142825 0.89602 8.92907e-05 
95 0 0 0 0 0 0 0 0 0 
99 0 0 0 0 0 0 0 0 0 
103 7.66977e-05 -4.12024e-05 -6.46908e-05 0 0.000255691 -0.000162853 1.67046e-05 0.979015 8.62488e-05 
107 0 0 0 0 0 0 0 0 0 
111 0 0 0 0 0 0 0 0 0 
115 0 0 0 0 0 0 0 0 0 
119 0 0 0 0 0 0 0 0 0 
123 0 0 0 0 0 0 0 0 0 
127 0 0 0 0 0 0 0 0 0 
131 0 0 0 0 0 0 0 0 0 
4 0.904448 0.904429 0.00591717 0 -0.000116734 0.0178425 -0.000338878 2708.32 0.0490603 
8 0.596442 0.596118 -0.0196546 0 0.00147457 0.0447233 0.00161934 1767.84 0.0694783 
12 0.409948 0.408872 -0.0296836 0 0.00341692 0.0470659 -0.00211531 1200.13 0.0734677 
16 0.303308 0.301408 -0.0338985 0 0.00468411 0.0416486 0.00107261 892.728 0.0734463 
20 0.273986 0.270848 -0.0413478 0 0.00628272 0.0411549 6.07061e-05 811.342 0.0835349 
24 0.286846 0.28163 -0.0544579 0 0.00965558 0.0499339 0.00274403 862.77 0.105602 
28 0.335173 0.326308 -0.0765785 0 0.0162793 0.0693674 -0.000610925 1020.11 0.144978 
32 0.324208 0.312459 -0.0864881 0 0.0215414 0.0778234 -0.000895825 994.257 0.16141 
36 0.305595 0.291071 -0.093094 0 0.0284487 0.0889486 0.00176705 947.846 0.173401 
40 0.29622 0.278356 -0.101312 0 0.0347531 0.0954851 -0.000593221 941.496 0.1883 
44 0.251131 0.232408 -0.0951503 0 0.0366329 0.089477 -0.00144609 799.678 0.177361 
48 0.244143 0.222113 -0.101349 0 0.043657 0.0956766 -0.000664549 802.589 0.190332 
52 0.11672 0.0739161 -0.090332 0 0.094848 0.0776114 -0.000322635 531.102 0.126389 
56 0.00212149 -0.000187335 -0.00211321 0 0.00375223 -0.000332633 -0.000143363 11.52 0.00273 
60 0.000112199 -6.02749e-05 -9.46343e-05 0 0.000157561 -0.000100354 4.07833e-06 0.657092 7.46531e-05 
64 0.000107541 -5.77735e-05 -9.07039e-05 0 9.3961e-05 -5.98481e-05 -1.30348e-05 0.353118 2.6539e-05 
68 2.11497e-05 -1.13621e-05 -1.78385e-05 0 4.87111e-05 -3.1026e-05 2.89913e-05 0.188746 2.61218e-05 
72 0.000275147 -0.000147811 -0.000232073 0 0.000392163 -0.000249775 0.000156384 1.36305 0.000162596 
76 3.50131e-05 -1.88094e-05 -2.95317e-05 0 6.56896e-05 -4.1839e-05 -3.99928e-05 0.0988252 2.96021e-05 
80 3.67937e-05 -1.97655e-05 -3.10338e-05 0 0.000105071 -6.69197e-05 2.85501e-05 0.352899 5.09677e-05 
84 2.51255e-05 -1.34976e-05 -2.1192e-05 0 6.31077e-05 -4.01945e-05 6.45185e-05 0.286207 2.79548e-05 
88 7.54642e-05 -4.05401e-05 -6.36502e-05 0 9.58811e-05 -6.10686e-05 3.7554e-05 0.344248 2.9304e-05 
92 0.000105753 -5.68102e-05 -8.91979e-05 0 0.000184598 -0.000117571 4.10913e-05 0.253307 6.33255e-05 
96 0.000122625 -6.58748e-05 -0.000103428 0 0.000355144 -0.000226195 -0.000128821 0.916711 0.000133518 
100 0 0 0 0 0 0 0 0 0 
104 0 0 0 0 0 0 0 0 0 
108 0 0 0 0 0 0 0 0 0 
112 0 0 0 0 0 0 0 0 0 
116 0 0 0 0 0 0 0 0 0 
120 0 0 0 0 0 0 0 0 0 
124 0 0 0 0 0 0 0 0 0 
128 0 0 0 0 0 0 0 0 0 
132 0 0 0 0 0 0 0 0 0 
