ITEM: TIMESTEP
17000
ITEM: NUMBER OF SURFS
134
ITEM: BOX BOUNDS oo ao pp
-10 10
0 10
-0.5 0.5
ITEM: SURFS id f_avg_pressure[1] f_avg_pressure[2] f_avg_pressure[3] f_avg_pressure[4] f_avg_shear[1] f_avg_shear[2] f_avg_shear[3] f_avg_heat_flux[*] f_avg_fdrag[*] 
1 0.940484 0.939869 0.034021 0 0.000950101 -0.0262476 -0.00408283 2799.63 0.00728917 
5 0.81747 0.817465 -0.0027152 0 9.0761e-05 0.0273254 0.000539899 2421.97 0.0570301 
9 0.545102 0.544602 -0.0233516 0 0.00197601 0.0460841 0.00435858 1619.93 0.0720159 
13 0.369529 0.368276 -0.0304018 0 0.00354557 0.0429497 0.000304418 1085.95 0.0720048 
17 0.264897 0.262932 -0.0322025 0 0.0047364 0.0386726 0.00307591 779.991 0.0683488 
21 0.280853 0.277204 -0.0451269 0 0.00684657 0.0420569 -0.000457338 848.013 0.0899723 
25 0.30314 0.297043 -0.060491 0 0.0107247 0.0526637 0.00136205 904.737 0.11626 
29 0.338637 0.328898 -0.0806308 0 0.0177737 0.0725 -0.00049692 1030.48 0.151933 
33 0.348288 0.334731 -0.0962258 0 0.024837 0.0863979 -7.56149e-05 1088.07 0.179138 
37 0.324608 0.308188 -0.101936 0 0.0319404 0.0965665 -0.00156262 1001.65 0.189604 
41 0.29929 0.280216 -0.105136 0 0.038958 0.103834 0.00266299 961.342 0.19659 
45 0.257483 0.237312 -0.099901 0 0.0395918 0.0940494 -0.000439325 829.57 0.186508 
49 0.215989 0.195603 -0.091601 0 0.0391035 0.0835006 -0.00463024 707.231 0.171388 
53 0.0718229 0.0339431 -0.063296 0 0.0930707 0.04991 0.00131997 410.633 0.0961595 
57 0.00069594 -0.000193621 -0.000668463 0 0.00125216 -0.000362691 6.01881e-05 2.92308 0.000807796 
61 2.3448e-05 -1.25965e-05 -1.97772e-05 0 4.32843e-05 -2.75686e-05 -7.0949e-05 0.176894 2.32873e-05 
65 7.95984e-06 -4.27609e-06 -6.71372e-06 0 2.87263e-05 -1.82963e-05 -2.71654e-05 0.0712431 1.77233e-05 
69 0.000232258 -0.000124769 -0.0001959 0 0.0003026 -0.000192727 0.000118969 0.783381 0.000122865 
73 0.000476405 -0.000255929 -0.000401824 0 0.000833503 -0.000530873 0.000450974 3.38254 0.000379421 
77 0 0 0 0 0 0 0 0 0 
81 0.000135359 -7.27161e-05 -0.000114169 0 0.000303648 -0.000193399 -2.29228e-05 1.37503 0.000136013 
85 0 0 0 0 0 0 0 0 0 
89 0 0 0 0 0 0 0 0 0 
93 0.000299373 -0.00016083 -0.000252504 0 0.000405496 -0.000258277 0.000130888 0.373351 0.000119166 
97 0 0 0 0 0 0 0 0 0 
101 0 0 0 0 0 0 0 0 0 
105 0 0 0 0 0 0 0 0 0 
109 0 0 0 0 0 0 0 0 0 
113 0 0 0 0 0 0 0 0 0 
117 0 0 0 0 0 0 0 0 0 
121 0 0 0 0 0 0 0 0 0 
125 0 0 0 0 0 0 0 0 0 
129 0 0 0 0 0 0 0 0 0 
133 0 0 0 0 0 0 0 0 0 
2 0.976516 0.976178 0.0256745 0 0.000185787 -0.00706384 -7.35073e-05 2942.78 0.022696 
6 0.740703 0.740639 -0.00977978 0 0.000507721 0.0384506 0.00551236 2187.41 0.0631913 
10 0.494689 0.494002 -0.0260695 0 0.00248828 0.0471514 0.0018743 1465.36 0.0731058 
14 0.345934 0.344464 -0.0318589 0 0.00403327 0.0436083 0.00161297 1025.73 0.0728707 
18 0.26404 0.261752 -0.0346863 0 0.00521182 0.0393298 -0.00255074 774.541 0.0722749 
22 0.277625 0.273563 -0.0473188 0 0.00775699 0.0448452 -0.000509758 825.671 0.0934087 
26 0.31849 0.311442 -0.0666322 0 0.0127621 0.0596506 0.0015952 967.988 0.127387 
30 0.369203 0.357699 -0.091443 0 0.0217681 0.0851507 -0.00328832 1158.03 0.172014 
34 0.337546 0.323472 -0.0964539 0 0.0270668 0.0907723 0.00459655 1051.86 0.17985 
38 0.301208 0.285023 -0.0974073 0 0.0325114 0.0951314 -0.00335222 947.597 0.181677 
42 0.26246 0.244811 -0.0946207 0 0.0335956 0.0869215 -0.000251578 825.1 0.175512 
46 0.280388 0.257335 -0.111337 0 0.0461262 0.106612 0.00424817 923.047 0.208727 
50 0.217301 0.190915 -0.103785 0 0.0532599 0.0979731 -0.00147186 730.152 0.177355 
54 0.0351945 0.0103565 -0.0336362 0 0.0760402 0.0234126 -0.000729575 291.882 0.0658975 
58 0.000200244 -9.16682e-05 -0.00017803 0 0.000261469 -0.000134632 6.01107e-05 0.743782 0.000128652 
62 5.41559e-05 -2.90929e-05 -4.56778e-05 0 0.000128444 -8.18082e-05 -3.8167e-05 0.310122 7.45484e-05 
66 0 0 0 0 0 0 0 0 0 
70 0.000385904 -0.000207311 -0.00032549 0 0.000641968 -0.000408881 -0.000277119 1.661 0.000296611 
74 0.000268624 -0.000144307 -0.000226571 0 0.000405579 -0.00025832 0.000271231 0.996065 0.000169416 
78 0.000105904 -5.6894e-05 -8.93237e-05 0 8.84792e-05 -5.63561e-05 0.000117428 0.501503 1.94078e-05 
82 9.65035e-05 -5.18439e-05 -8.1395e-05 0 0.000341202 -0.000217326 -0.000168499 1.45404 0.000167968 
86 0.000120345 -6.4651e-05 -0.000101505 0 5.97769e-05 -3.80734e-05 4.62395e-06 0.0386669 -2.6638e-06 
90 0 0 0 0 0 0 0 0 0 
94 0 0 0 0 0 0 0 0 0 
98 0 0 0 0 0 0 0 0 0 
102 0 0 0 0 0 0 0 0 0 
106 0 0 0 0 0 0 0 0 0 
110 0 0 0 0 0 0 0 0 0 
114 0 0 0 0 0 0 0 0 0 
118 0 0 0 0 0 0 0 0 0 
122 0 0 0 0 0 0 0 0 0 
126 0 0 0 0 0 0 0 0 0 
130 0 0 0 0 0 0 0 0 0 
134 0 0 0 0 0 0 0 0 0 
3 0.870683 0.870566 0.0142985 0 -0.000112173 0.00682967 0.000995368 2556.54 0.0337276 
7 0.681395 0.681213 -0.0157329 0 0.0010738 0.046494 -0.00397914 2022.88 0.0687503 
11 0.467942 0.467025 -0.0292765 0 0.00267483 0.0426694 -0.0011002 1373.93 0.0764321 
15 0.315361 0.313718 -0.0321476 0 0.00403795 0.0394051 -0.000754976 932.141 0.0713467 
19 0.270308 0.267601 -0.0381557 0 0.0058832 0.0412613 0.00114371 794.021 0.0782412 
23 0.297197 0.292335 -0.0535385 0 0.0090945 0.0496585 -0.000365308 894.1 0.104687 
27 0.328898 0.320923 -0.0719883 0 0.0136603 0.0608973 -0.00298992 1004.47 0.136534 
31 0.335813 0.324512 -0.0863856 0 0.0209121 0.0785574 -0.000639133 1040.01 0.161764 
35 0.322979 0.308585 -0.0953464 0 0.0269618 0.0872606 0.00113643 1002 0.177139 
39 0.303989 0.286668 -0.101146 0 0.0353812 0.100278 0.00126102 977.509 0.188974 
43 0.234893 0.21825 -0.0868429 0 0.0331805 0.0833877 -0.00184545 733.452 0.162136 
47 0.233726 0.213582 -0.0949231 0 0.0391178 0.0880173 0.00109977 761.08 0.177397 
51 0.168121 0.129506 -0.107204 0 0.0802188 0.0969071 0.00193773 650.001 0.154885 
55 0.010467 0.0010986 -0.0104092 0 0.0359454 0.00379372 0.000471843 128.428 0.0283648 
59 2.74886e-05 -1.47671e-05 -2.31853e-05 0 9.70045e-05 -6.17839e-05 -3.00665e-05 0.442991 6.38025e-05 
63 0.000125557 -6.74493e-05 -0.000105902 0 0.000293049 -0.000186644 -7.66425e-05 0.887266 0.000167365 
67 0.000234449 -0.000125948 -0.000197746 0 0.000816442 -0.000520007 -1.98368e-05 1.73532 0.000488789 
71 0 0 0 0 0 0 0 0 0 
75 0 0 0 0 0 0 0 0 0 
79 8.24306e-06 -4.42824e-06 -6.95261e-06 0 0.000100311 -6.38897e-05 -1.87411e-05 0.556787 5.81009e-05 
83 4.50277e-05 -2.41888e-05 -3.79789e-05 0 8.045e-05 -5.12387e-05 -4.28364e-06 0.0748428 3.21811e-05 
87 0 0 0 0 0 0 0 0 0 
91 0 0 0 0 0 0 0 0 0 
95 0 0 0 0 0 0 0 0 0 
99 0 0 0 0 0 0 0 0 0 
103 0 0 0 0 0 0 0 0 0 
107 0 0 0 0 0 0 0 0 0 
111 0 0 0 0 0 0 0 0 0 
115 0 0 0 0 0 0 0 0 0 
119 0 0 0 0 0 0 0 0 0 
123 0 0 0 0 0 0 0 0 0 
127 0 0 0 0 0 0 0 0 0 
131 0 0 0 0 0 0 0 0 0 
4 0.891814 0.891795 0.00583451 0 -0.000110355 0.0168676 0.004039 2661.22 0.0483753 
8 0.594383 0.59406 -0.0195867 0 0.00152982 0.0463989 0.00413741 1747.71 0.0692454 
12 0.39715 0.396107 -0.0287569 0 0.00333426 0.0459272 -0.000627118 1158.2 0.0711784 
16 0.297754 0.295888 -0.0332777 0 0.0046728 0.0415481 -0.00078654 872.496 0.0721192 
20 0.281548 0.278324 -0.042489 0 0.00652099 0.0427156 0.00182061 830.684 0.0858602 
24 0.295487 0.290113 -0.0560984 0 0.00909923 0.0470567 0.00330589 886.173 0.108476 
28 0.325465 0.316856 -0.0743604 0 0.0159527 0.0679758 0.00245748 982.271 0.14084 
32 0.327763 0.315885 -0.0874365 0 0.0213788 0.0772359 -0.00152388 996.78 0.162988 
36 0.295613 0.281563 -0.090053 0 0.0273976 0.0856621 0.00151209 900.877 0.167671 
40 0.292559 0.274916 -0.10006 0 0.0346751 0.0952707 0.000965181 923.551 0.186184 
44 0.255251 0.23622 -0.0967112 0 0.0371912 0.0908406 -0.00187423 804.075 0.180242 
48 0.254574 0.231603 -0.10568 0 0.0464171 0.101725 4.7278e-05 833.471 0.199104 
52 0.118877 0.0752822 -0.0920015 0 0.0952655 0.077953 -0.00124659 534.166 0.127725 
56 0.00197785 -0.000174651 -0.00197013 0 0.00370295 -0.000328265 -0.000171733 11.0015 0.00270197 
60 6.11581e-05 -3.28549e-05 -5.15836e-05 0 7.91253e-05 -5.03968e-05 5.5506e-05 0.246695 3.5506e-05 
64 0.000182528 -9.80586e-05 -0.000153951 0 5.61583e-05 -3.57698e-05 -9.83545e-05 0.276662 -3.07286e-05 
68 2.96618e-05 -1.5935e-05 -2.5018e-05 0 9.02746e-05 -5.74995e-05 3.95088e-05 0.383084 5.19929e-05 
72 0.000137404 -7.38144e-05 -0.000115893 0 0.000134907 -8.59246e-05 4.02632e-05 0.44409 4.06522e-05 
76 8.75327e-05 -4.70234e-05 -7.38293e-05 0 0.000164224 -0.000104598 -9.9982e-05 0.247063 7.40053e-05 
80 9.19842e-05 -4.94139e-05 -7.75846e-05 0 0.000262676 -0.000167299 7.13752e-05 0.882248 0.000127419 
84 0 0 0 0 0 0 0 0 0 
88 8.78391e-05 -4.7188e-05 -7.40878e-05 0 3.32279e-05 -2.11635e-05 2.92168e-05 0.0797976 -7.39212e-06 
92 0 0 0 0 0 0 0 0 0 
96 0.000159689 -8.57854e-05 -0.00013469 0 0.000388733 -0.000247589 -0.000117083 0.489341 0.000139832 
100 0 0 0 0 0 0 0 0 0 
104 0 0 0 0 0 0 0 0 0 
108 0 0 0 0 0 0 0 0 0 
112 0 0 0 0 0 0 0 0 0 
116 0 0 0 0 0 0 0 0 0 
120 0 0 0 0 0 0 0 0 0 
124 0 0 0 0 0 0 0 0 0 
128 0 0 0 0 0 0 0 0 0 
132 0 0 0 0 0 0 0 0 0 
