ITEM: TIMESTEP
18000
ITEM: NUMBER OF SURFS
134
ITEM: BOX BOUNDS oo ao pp
-10 10
0 10
-0.5 0.5
ITEM: SURFS id f_avg_pressure[1] f_avg_pressure[2] f_avg_pressure[3] f_avg_pressure[4] f_avg_shear[1] f_avg_shear[2] f_avg_shear[3] f_avg_heat_flux[*] f_avg_fdrag[*] 
1 0.981515 0.980872 0.0355052 0 0.00106212 -0.0293423 -0.00304013 2950.32 0.00760772 
5 0.819051 0.819047 -0.00272046 0 9.18064e-05 0.0276401 0.000686422 2431.48 0.0571406 
9 0.545206 0.544706 -0.0233561 0 0.0019947 0.0465201 0.00294369 1623.54 0.072032 
13 0.364932 0.363695 -0.0300236 0 0.00353232 0.0427892 -0.00118408 1073.34 0.0711151 
17 0.264822 0.262858 -0.0321934 0 0.00470873 0.0384467 0.00322163 780.66 0.0683228 
21 0.282416 0.278746 -0.0453779 0 0.00694293 0.0426489 -0.000504771 854.109 0.0904913 
25 0.304667 0.298539 -0.0607957 0 0.0110193 0.0541107 0.0015402 908.4 0.116936 
29 0.3331 0.32352 -0.0793123 0 0.0175342 0.0715233 -0.000227926 1015.89 0.149471 
33 0.341731 0.32843 -0.0944144 0 0.0247725 0.0861736 -0.000722885 1064.26 0.175966 
37 0.333077 0.316228 -0.104596 0 0.0324929 0.0982368 -0.00154266 1044 0.194394 
41 0.29897 0.279916 -0.105024 0 0.0380917 0.101525 0.00391314 956.268 0.195872 
45 0.261204 0.240742 -0.101345 0 0.0400879 0.0952278 0.000578949 842.127 0.189153 
49 0.222408 0.201416 -0.0943236 0 0.0408026 0.087129 -0.00393695 731.127 0.176874 
53 0.070611 0.0333704 -0.062228 0 0.0919853 0.049328 0.00129502 405.535 0.0949042 
57 0.000686571 -0.000191015 -0.000659464 0 0.00114007 -0.000330224 0.000135192 2.73457 0.000724246 
61 3.29057e-05 -1.76772e-05 -2.77543e-05 0 8.1324e-05 -5.17967e-05 -5.24956e-05 0.348367 4.82981e-05 
65 1.30149e-05 -6.99172e-06 -1.09774e-05 0 4.44308e-05 -2.82988e-05 -2.5246e-05 0.0786289 2.71385e-05 
69 0.000185807 -9.98152e-05 -0.00015672 0 0.00024208 -0.000154181 9.51756e-05 0.626705 9.82916e-05 
73 0.000416568 -0.000223784 -0.000351354 0 0.000722776 -0.000460349 0.000347286 2.89647 0.000327799 
77 0 0 0 0 0 0 0 0 0 
81 0.000108287 -5.81729e-05 -9.1335e-05 0 0.000242919 -0.000154719 -1.83382e-05 1.10002 0.00010881 
85 0 0 0 0 0 0 0 0 0 
89 0 0 0 0 0 0 0 0 0 
93 0.000239498 -0.000128664 -0.000202003 0 0.000324396 -0.000206621 0.000104711 0.298681 9.53325e-05 
97 0 0 0 0 0 0 0 0 0 
101 0 0 0 0 0 0 0 0 0 
105 0 0 0 0 0 0 0 0 0 
109 0 0 0 0 0 0 0 0 0 
113 8.3453e-05 -4.48315e-05 -7.03884e-05 0 0.000765105 -0.000487308 -5.92383e-05 2.27111 0.000228455 
117 0 0 0 0 0 0 0 0 0 
121 0 0 0 0 0 0 0 0 0 
125 0 0 0 0 0 0 0 0 0 
129 0 0 0 0 0 0 0 0 0 
133 0 0 0 0 0 0 0 0 0 
2 0.981013 0.980674 0.0257928 0 0.000169379 -0.00644 -0.000606825 2954.57 0.0228001 
6 0.751414 0.751349 -0.0099212 0 0.000494346 0.0374377 0.00335454 2228.87 0.0641033 
10 0.500822 0.500126 -0.0263927 0 0.00253595 0.0480548 0.00180609 1488.27 0.0740146 
14 0.356409 0.354894 -0.0328237 0 0.00416389 0.0450206 0.00184559 1062.44 0.0750791 
18 0.264636 0.262342 -0.0347645 0 0.00524846 0.0396063 -0.00334168 768.902 0.0724445 
22 0.274212 0.2702 -0.0467371 0 0.00758651 0.0438596 0.000584566 812.118 0.0922354 
26 0.304054 0.297326 -0.063612 0 0.012355 0.0577478 0.000990081 922.114 0.12168 
30 0.36052 0.349287 -0.0892926 0 0.0214664 0.0839705 -0.00217887 1123.26 0.168064 
34 0.336773 0.322731 -0.096233 0 0.026946 0.0903672 0.00288939 1049.74 0.179408 
38 0.297793 0.281792 -0.096303 0 0.0318383 0.0931618 -0.00142036 938.288 0.179443 
42 0.253946 0.236869 -0.091551 0 0.0332444 0.0860128 -0.000989135 799.161 0.170284 
46 0.27141 0.249096 -0.107772 0 0.0444357 0.102705 0.00344113 896.52 0.201897 
50 0.223507 0.196368 -0.106749 0 0.0538429 0.0990456 -0.00141763 748.952 0.181739 
54 0.0358264 0.0105425 -0.0342401 0 0.078068 0.024037 -0.00121669 300.678 0.067586 
58 0.0004179 -0.000191307 -0.00037154 0 0.000722658 -0.0003721 2.41828e-05 1.94364 0.000402584 
62 7.88666e-05 -4.23677e-05 -6.652e-05 0 0.000163676 -0.000104248 -5.57869e-05 0.421115 9.10238e-05 
66 0 0 0 0 0 0 0 0 0 
70 0.000414941 -0.00022291 -0.000349982 0 0.000555103 -0.000353555 -0.000278106 1.38281 0.000226689 
74 0.000214899 -0.000115446 -0.000181257 0 0.000324463 -0.000206656 0.000216985 0.796852 0.000135533 
78 8.47232e-05 -4.55152e-05 -7.1459e-05 0 7.07834e-05 -4.50849e-05 9.39427e-05 0.401202 1.55263e-05 
82 7.72028e-05 -4.14751e-05 -6.5116e-05 0 0.000272962 -0.000173861 -0.0001348 1.16323 0.000134374 
86 9.62764e-05 -5.17208e-05 -8.1204e-05 0 4.78215e-05 -3.04587e-05 3.69916e-06 0.0309336 -2.13104e-06 
90 0 0 0 0 0 0 0 0 0 
94 0 0 0 0 0 0 0 0 0 
98 0 0 0 0 0 0 0 0 0 
102 0 0 0 0 0 0 0 0 0 
106 0 0 0 0 0 0 0 0 0 
110 0 0 0 0 0 0 0 0 0 
114 0 0 0 0 0 0 0 0 0 
118 0 0 0 0 0 0 0 0 0 
122 0 0 0 0 0 0 0 0 0 
126 0 0 0 0 0 0 0 0 0 
130 0 0 0 0 0 0 0 0 0 
134 0 0 0 0 0 0 0 0 0 
3 0.895467 0.895346 0.0147055 0 -9.41731e-05 0.00573373 0.00297293 2641.42 0.0346885 
7 0.660954 0.660778 -0.0152609 0 0.00105177 0.0455401 -0.0033743 1953.82 0.0666889 
11 0.462241 0.461336 -0.0289198 0 0.00268662 0.0428576 0.000326832 1358.43 0.0755082 
15 0.315855 0.31421 -0.032198 0 0.0040268 0.0392963 -0.00146429 933.989 0.0714546 
19 0.27502 0.272266 -0.0388208 0 0.00598137 0.0419498 5.52743e-05 809.813 0.0796039 
23 0.292534 0.287748 -0.0526985 0 0.00858036 0.0468511 -0.000687362 873.222 0.102915 
27 0.336186 0.328034 -0.0735836 0 0.0140068 0.062442 -0.0027739 1030.25 0.139577 
31 0.327988 0.31695 -0.0843726 0 0.0207325 0.0778826 -0.000572106 1012.46 0.158139 
35 0.322743 0.30836 -0.0952768 0 0.0277208 0.0897171 0.00102736 1000.87 0.177421 
39 0.297105 0.280177 -0.0988556 0 0.0339693 0.0962759 0.00196789 954.945 0.184337 
43 0.235476 0.218792 -0.0870585 0 0.0328511 0.0825599 -0.00194827 735.106 0.162273 
47 0.235632 0.215325 -0.0956974 0 0.0393112 0.0884523 0.00232844 767.424 0.178756 
51 0.167213 0.128807 -0.106625 0 0.0801016 0.0967656 0.000569312 649.852 0.154283 
55 0.0107045 0.00112353 -0.0106454 0 0.0342668 0.00361656 0.000965702 122.242 0.0270986 
59 2.19909e-05 -1.18137e-05 -1.85482e-05 0 7.76036e-05 -4.94271e-05 -2.40532e-05 0.354393 5.1042e-05 
63 0.000132323 -7.10838e-05 -0.000111608 0 0.000287099 -0.000182855 -6.06416e-05 0.767785 0.000160255 
67 0.000187559 -0.000100758 -0.000158197 0 0.000653153 -0.000416005 -1.58694e-05 1.38826 0.000391032 
71 0 0 0 0 0 0 0 0 0 
75 0 0 0 0 0 0 0 0 0 
79 6.59445e-06 -3.54259e-06 -5.56209e-06 0 8.02485e-05 -5.11117e-05 -1.49929e-05 0.445429 4.64807e-05 
83 3.60222e-05 -1.9351e-05 -3.03831e-05 0 6.436e-05 -4.0991e-05 -3.42692e-06 0.0598743 2.57449e-05 
87 0 0 0 0 0 0 0 0 0 
91 0 0 0 0 0 0 0 0 0 
95 0 0 0 0 0 0 0 0 0 
99 0 0 0 0 0 0 0 0 0 
103 0 0 0 0 0 0 0 0 0 
107 0 0 0 0 0 0 0 0 0 
111 0 0 0 0 0 0 0 0 0 
115 0 0 0 0 0 0 0 0 0 
119 0 0 0 0 0 0 0 0 0 
123 0 0 0 0 0 0 0 0 0 
127 0 0 0 0 0 0 0 0 0 
131 0 0 0 0 0 0 0 0 0 
4 0.898181 0.898162 0.00587617 0 -0.000113554 0.0173566 0.00301502 2686.37 0.0487205 
8 0.587251 0.586932 -0.0193517 0 0.00150246 0.0455694 0.00274113 1733.48 0.0684135 
12 0.396744 0.395703 -0.0287275 0 0.00331685 0.0456875 -0.00135741 1160.79 0.0711032 
16 0.300346 0.298464 -0.0335675 0 0.00468745 0.0416784 -0.000144177 886.6 0.0727408 
20 0.282064 0.278834 -0.0425669 0 0.00653328 0.0427962 0.0015911 833.461 0.0860176 
24 0.294823 0.289461 -0.0559722 0 0.00948675 0.0490608 0.00415413 886.341 0.10838 
28 0.331258 0.322496 -0.0756841 0 0.0157591 0.0671507 0.000446388 1003.22 0.143145 
32 0.323086 0.311377 -0.0861888 0 0.0210031 0.0758786 -0.00168216 987.494 0.160628 
36 0.297127 0.283004 -0.0905142 0 0.0274134 0.0857115 0.00172676 907.004 0.168462 
40 0.295367 0.277555 -0.10102 0 0.0349472 0.0960182 1.19323e-05 938.35 0.187934 
44 0.255449 0.236403 -0.0967861 0 0.0372686 0.0910297 -0.000741089 804.574 0.180414 
48 0.253655 0.230766 -0.105298 0 0.0459868 0.100782 0.000163822 832.713 0.198197 
52 0.116715 0.0739129 -0.0903281 0 0.0941035 0.0770022 -0.000417464 525.441 0.125829 
56 0.00199642 -0.000176291 -0.00198862 0 0.00372682 -0.000330381 -0.000176898 10.9124 0.002719 
60 4.89265e-05 -2.62839e-05 -4.12669e-05 0 6.33002e-05 -4.03175e-05 4.44048e-05 0.197356 2.84048e-05 
64 0.000146022 -7.84469e-05 -0.000123161 0 4.49266e-05 -2.86159e-05 -7.86836e-05 0.22133 -2.45829e-05 
68 2.37295e-05 -1.2748e-05 -2.00144e-05 0 7.22197e-05 -4.59996e-05 3.1607e-05 0.306467 4.15943e-05 
72 0.000550295 -0.000295622 -0.000464146 0 0.000784327 -0.00049955 0.000312768 2.72609 0.000325191 
76 7.00261e-05 -3.76187e-05 -5.90635e-05 0 0.000131379 -8.36781e-05 -7.99856e-05 0.19765 5.92042e-05 
80 7.35874e-05 -3.95311e-05 -6.20677e-05 0 0.000210141 -0.000133839 5.71002e-05 0.705799 0.000101935 
84 0 0 0 0 0 0 0 0 0 
88 7.02713e-05 -3.77504e-05 -5.92702e-05 0 2.65823e-05 -1.69308e-05 2.33734e-05 0.0638381 -5.91369e-06 
92 0 0 0 0 0 0 0 0 0 
96 0.00015885 -8.53348e-05 -0.000133982 0 0.00042681 -0.00027184 -0.000240598 0.763955 0.000157615 
100 0 0 0 0 0 0 0 0 0 
104 0 0 0 0 0 0 0 0 0 
108 0 0 0 0 0 0 0 0 0 
112 0 0 0 0 0 0 0 0 0 
116 0 0 0 0 0 0 0 0 0 
120 0 0 0 0 0 0 0 0 0 
124 0 0 0 0 0 0 0 0 0 
128 0 0 0 0 0 0 0 0 0 
132 0 0 0 0 0 0 0 0 0 
