ITEM: TIMESTEP
22000
ITEM: NUMBER OF SURFS
134
ITEM: BOX BOUNDS oo ao pp
-10 10
0 10
-0.5 0.5
ITEM: SURFS id f_avg_pressure[1] f_avg_pressure[2] f_avg_pressure[3] f_avg_pressure[4] f_avg_shear[1] f_avg_shear[2] f_avg_shear[3] f_avg_heat_flux[*] f_avg_fdrag[*] 
1 0.977808 0.977168 0.0353711 0 0.000960718 -0.026541 0.000697586 2937.25 0.00757824 
5 0.798007 0.798002 -0.00265056 0 9.23077e-05 0.0277911 -0.000701812 2369.3 0.0556726 
9 0.544507 0.544008 -0.0233261 0 0.00198029 0.0461839 0.00341638 1618.67 0.0719381 
13 0.362132 0.360904 -0.0297932 0 0.00370469 0.0448772 -0.00194258 1059 0.070608 
17 0.274795 0.272757 -0.0334057 0 0.0046908 0.0383002 0.000986237 806.552 0.0708458 
21 0.284089 0.280398 -0.0456468 0 0.00725189 0.0445467 0.00158145 848.388 0.0911123 
25 0.300191 0.294153 -0.0599025 0 0.0111172 0.0545912 0.00357348 896.264 0.115316 
29 0.331507 0.321973 -0.078933 0 0.0175044 0.0714017 -0.000679636 1011.95 0.14878 
33 0.352478 0.338758 -0.0973835 0 0.0257818 0.0896846 -0.00162256 1096.51 0.181615 
37 0.327037 0.310493 -0.102699 0 0.0325987 0.0985567 0.000467362 1026.98 0.191256 
41 0.290498 0.271985 -0.102048 0 0.0369281 0.0984234 0.00299927 930.105 0.19027 
45 0.25747 0.2373 -0.0998959 0 0.0399686 0.0949445 0.000285737 830.171 0.186754 
49 0.221161 0.200287 -0.0937946 0 0.041115 0.087796 -0.000779313 734.179 0.176277 
53 0.070692 0.0334086 -0.0622994 0 0.0927447 0.0497352 0.00113459 410.264 0.0955081 
57 0.000650703 -0.000181036 -0.000625013 0 0.00111875 -0.000324049 0.000111421 2.73253 0.000715593 
61 4.17681e-05 -2.24382e-05 -3.52293e-05 0 9.031e-05 -5.752e-05 -6.19323e-05 0.308018 5.15042e-05 
65 0.00011698 -6.28427e-05 -9.86668e-05 0 0.000121009 -7.7073e-05 -7.13139e-05 0.307184 4.21633e-05 
69 0.000103226 -5.54529e-05 -8.70665e-05 0 0.000134489 -8.56562e-05 5.28753e-05 0.348169 5.46064e-05 
73 0.000231426 -0.000124324 -0.000195197 0 0.000401542 -0.00025575 0.000192937 1.60915 0.000182111 
77 2.14324e-05 -1.15135e-05 -1.80773e-05 0 0.000149953 -9.55056e-05 4.89343e-05 0.315034 8.6242e-05 
81 9.29354e-05 -4.99257e-05 -7.83863e-05 0 0.000187374 -0.000119342 -2.29625e-05 0.634785 8.09536e-05 
85 0 0 0 0 0 0 0 0 0 
89 0 0 0 0 0 0 0 0 0 
93 0.000223044 -0.000119824 -0.000188125 0 0.000321281 -0.000204637 -0.000100108 0.390988 9.81203e-05 
97 0 0 0 0 0 0 0 0 0 
101 0 0 0 0 0 0 0 0 0 
105 0 0 0 0 0 0 0 0 0 
109 0 0 0 0 0 0 0 0 0 
113 4.63628e-05 -2.49064e-05 -3.91047e-05 0 0.000425058 -0.000270727 -3.29102e-05 1.26173 0.000126919 
117 0 0 0 0 0 0 0 0 0 
121 0 0 0 0 0 0 0 0 0 
125 0 0 0 0 0 0 0 0 0 
129 0 0 0 0 0 0 0 0 0 
133 0 0 0 0 0 0 0 0 0 
2 1.01045 1.01011 0.0265669 0 0.000226001 -0.00859286 -0.000941061 3049.23 0.0234856 
6 0.745327 0.745262 -0.00984082 0 0.000482165 0.0365151 0.00343276 2213.1 0.0635833 
10 0.497511 0.496819 -0.0262182 0 0.00253934 0.048119 0.0028642 1472.5 0.0735282 
14 0.342795 0.341338 -0.0315698 0 0.00423595 0.0457997 0.00066749 1017.11 0.0722595 
18 0.271154 0.268804 -0.0356208 0 0.00548335 0.0413788 -0.00101168 795.588 0.0742575 
22 0.268139 0.264216 -0.045702 0 0.00747724 0.0432279 0.00159702 800.588 0.0902121 
26 0.312116 0.305209 -0.0652987 0 0.0129489 0.0605237 0.00166453 946.522 0.125011 
30 0.35317 0.342167 -0.0874722 0 0.0209434 0.0819245 -0.00247838 1094.88 0.164599 
34 0.331742 0.31791 -0.0947955 0 0.0259962 0.0871818 0.00178692 1029.44 0.176447 
38 0.300279 0.284144 -0.0971068 0 0.031695 0.0927425 -0.000237644 945.747 0.180707 
42 0.264992 0.247172 -0.0955334 0 0.0349229 0.0903555 -0.00133947 842.272 0.177838 
46 0.258881 0.237597 -0.102797 0 0.0424045 0.0980101 0.00215788 850.466 0.192591 
50 0.220779 0.193971 -0.105446 0 0.0532981 0.0980433 -0.00102548 754.243 0.179603 
54 0.0341492 0.0100489 -0.0326372 0 0.0748263 0.0230388 -0.000835505 287.625 0.064737 
58 0.000366579 -0.000167813 -0.000325912 0 0.000712361 -0.000366797 -6.95677e-06 2.07987 0.000412582 
62 9.70457e-05 -5.21336e-05 -8.18532e-05 0 0.00018034 -0.000114862 -5.40274e-05 0.563149 9.62001e-05 
66 8.44184e-05 -4.53492e-05 -7.12034e-05 0 6.85401e-05 -4.3653e-05 -1.42505e-05 0.114613 1.66137e-05 
70 0.000273193 -0.000146762 -0.000230425 0 0.000433885 -0.000276349 -0.000205936 1.06325 0.000195934 
74 0.000246156 -0.000132237 -0.000207621 0 0.000481762 -0.000306843 0.000154522 1.40265 0.000226642 
78 8.43464e-05 -4.53128e-05 -7.11411e-05 0 0.000123375 -7.85829e-05 5.34039e-05 0.387025 4.79663e-05 
82 0.000227838 -0.0001224 -0.000192168 0 0.000317478 -0.000202215 -5.96804e-05 1.00182 0.00011324 
86 5.34869e-05 -2.87338e-05 -4.51134e-05 0 2.65675e-05 -1.69215e-05 2.05509e-06 0.0171853 -1.18391e-06 
90 3.85816e-05 -2.07263e-05 -3.25416e-05 0 4.78249e-05 -3.04605e-05 -1.78745e-05 0.0994662 1.38888e-05 
94 0 0 0 0 0 0 0 0 0 
98 7.49515e-05 -4.02644e-05 -6.3218e-05 0 0.0001589 -0.000101206 3.31244e-05 0.192212 5.27434e-05 
102 0 0 0 0 0 0 0 0 0 
106 0 0 0 0 0 0 0 0 0 
110 8.91087e-05 -4.78696e-05 -7.51589e-05 0 0.000199454 -0.000127034 -6.53167e-06 0.80039 5.19415e-05 
114 0 0 0 0 0 0 0 0 0 
118 0 0 0 0 0 0 0 0 0 
122 0 0 0 0 0 0 0 0 0 
126 0 0 0 0 0 0 0 0 0 
130 0 0 0 0 0 0 0 0 0 
134 0 0 0 0 0 0 0 0 0 
3 0.906978 0.906856 0.0148946 0 -0.000102543 0.00624334 0.00100363 2689.22 0.0351341 
7 0.659097 0.658921 -0.0152181 0 0.00100834 0.0436599 -0.00136751 1951.21 0.0664974 
11 0.465116 0.464205 -0.0290997 0 0.00284346 0.0453595 0.000467326 1371.47 0.0760005 
15 0.322324 0.320645 -0.0328574 0 0.0042815 0.0417818 0.00133233 958.005 0.0729566 
19 0.265715 0.263055 -0.0375074 0 0.00567627 0.03981 -0.0011746 779.38 0.0768813 
23 0.288577 0.283856 -0.0519856 0 0.00881924 0.0481554 0.000220582 861.323 0.101646 
27 0.326823 0.318898 -0.0715342 0 0.0138331 0.0616678 -0.00113111 992.452 0.135778 
31 0.330055 0.318948 -0.0849044 0 0.0210069 0.0789137 0.000882327 1027.2 0.159203 
35 0.316371 0.302271 -0.0933957 0 0.0268241 0.0868152 -0.00144121 985.243 0.173733 
39 0.300528 0.283404 -0.0999944 0 0.0339389 0.0961897 0.000780364 963.773 0.186213 
43 0.244374 0.227059 -0.090348 0 0.0335918 0.0844214 -0.00235207 768.717 0.168082 
47 0.237934 0.217428 -0.0966321 0 0.0402162 0.0904888 0.00280593 775.774 0.180868 
51 0.16693 0.128589 -0.106444 0 0.0799142 0.0965392 -7.20918e-05 648.748 0.153983 
55 0.00948205 0.00099522 -0.00942968 0 0.0326377 0.00344462 0.000769186 115.526 0.0257529 
59 6.10037e-05 -3.27717e-05 -5.14536e-05 0 0.00011787 -7.50736e-05 -1.73598e-06 0.419982 6.60222e-05 
63 7.77245e-05 -4.17536e-05 -6.55571e-05 0 0.000164333 -0.000104664 -4.3126e-05 0.448555 9.09376e-05 
67 0.000122894 -6.60198e-05 -0.000103655 0 0.00042647 -0.000271626 -1.17222e-05 1.04831 0.000255157 
71 3.23868e-05 -1.73987e-05 -2.73164e-05 0 2.55983e-05 -1.63044e-05 -1.42375e-05 0.0845959 5.52593e-06 
75 1.34775e-05 -7.24028e-06 -1.13676e-05 0 8.0959e-05 -5.15647e-05 3.62805e-05 0.210025 4.71764e-05 
79 3.66358e-06 -1.96811e-06 -3.09005e-06 0 4.45825e-05 -2.83954e-05 -8.32938e-06 0.247461 2.58226e-05 
83 2.00123e-05 -1.07506e-05 -1.68795e-05 0 3.57555e-05 -2.27728e-05 -1.90384e-06 0.0332635 1.43027e-05 
87 2.55364e-05 -1.37184e-05 -2.15387e-05 0 1.72864e-05 -1.101e-05 -3.23469e-05 0.0375872 1.91963e-06 
91 0.000140962 -7.57264e-05 -0.000118895 0 0.000272561 -0.0001736 -0.000158695 0.995578 9.92119e-05 
95 0 0 0 0 0 0 0 0 0 
99 0 0 0 0 0 0 0 0 0 
103 8.52197e-05 -4.57805e-05 -7.18786e-05 0 0.000284101 -0.000180948 1.85607e-05 1.08779 9.5832e-05 
107 0 0 0 0 0 0 0 0 0 
111 0 0 0 0 0 0 0 0 0 
115 0 0 0 0 0 0 0 0 0 
119 0 0 0 0 0 0 0 0 0 
123 0 0 0 0 0 0 0 0 0 
127 0 0 0 0 0 0 0 0 0 
131 0 0 0 0 0 0 0 0 0 
4 0.899755 0.899736 0.00588646 0 -0.000114992 0.0175764 -0.000455202 2690.76 0.0488058 
8 0.59366 0.593338 -0.0195629 0 0.00148661 0.0450885 0.00198284 1757.59 0.0691564 
12 0.414062 0.412976 -0.0299815 0 0.00342489 0.0471755 -0.00182117 1212.65 0.0742004 
16 0.303201 0.301301 -0.0338865 0 0.0047514 0.042247 0.00112033 893.208 0.073437 
20 0.274634 0.271489 -0.0414456 0 0.00633646 0.0415069 -0.000293571 813.272 0.0837444 
24 0.282143 0.277012 -0.053565 0 0.0095515 0.0493956 0.00324164 844.805 0.10389 
28 0.334845 0.325988 -0.0765035 0 0.0162313 0.0691629 -0.000497312 1019.71 0.144822 
32 0.326985 0.315135 -0.0872289 0 0.0216005 0.0780368 -0.000312614 1001.97 0.162732 
36 0.302793 0.288402 -0.0922404 0 0.0282264 0.0882534 0.00218218 935.878 0.171832 
40 0.295053 0.277259 -0.100912 0 0.0346516 0.0952061 -4.85467e-05 936.143 0.187579 
44 0.246135 0.227784 -0.0932571 0 0.035954 0.0878189 -0.00135768 781.107 0.173865 
48 0.245496 0.223344 -0.101911 0 0.0438177 0.0960287 -0.000969195 806.62 0.191328 
52 0.11582 0.0733465 -0.0896359 0 0.0942023 0.0770831 -5.08741e-05 524.955 0.125479 
56 0.00209833 -0.000185289 -0.00209013 0 0.0035584 -0.000315451 -0.00010973 10.8986 0.00258313 
60 8.42066e-05 -4.52368e-05 -7.10239e-05 0 9.32138e-05 -5.93701e-05 1.87129e-05 0.36208 3.68156e-05 
64 0.00011949 -6.41928e-05 -0.000100782 0 0.000104401 -6.64979e-05 -1.44831e-05 0.392354 2.94878e-05 
68 2.34997e-05 -1.26245e-05 -1.98206e-05 0 5.41234e-05 -3.44733e-05 3.22126e-05 0.209718 2.90242e-05 
72 0.000305719 -0.000164234 -0.000257859 0 0.000435737 -0.000277528 0.00017376 1.5145 0.000180662 
76 3.89034e-05 -2.08993e-05 -3.2813e-05 0 7.29884e-05 -4.64878e-05 -4.44364e-05 0.109806 3.28912e-05 
80 4.08819e-05 -2.19617e-05 -3.4482e-05 0 0.000116745 -7.43553e-05 3.17223e-05 0.39211 5.66308e-05 
84 2.79172e-05 -1.49974e-05 -2.35467e-05 0 7.01196e-05 -4.46606e-05 7.16873e-05 0.318008 3.10609e-05 
88 8.38492e-05 -4.50446e-05 -7.07225e-05 0 0.000106535 -6.7854e-05 4.17267e-05 0.382498 3.256e-05 
92 0.000117503 -6.31224e-05 -9.91088e-05 0 0.000205109 -0.000130634 4.5657e-05 0.281453 7.03616e-05 
96 8.82499e-05 -4.74082e-05 -7.44345e-05 0 0.000237116 -0.000151022 -0.000133666 0.424419 8.75638e-05 
100 0 0 0 0 0 0 0 0 0 
104 0 0 0 0 0 0 0 0 0 
108 0 0 0 0 0 0 0 0 0 
112 0 0 0 0 0 0 0 0 0 
116 0 0 0 0 0 0 0 0 0 
120 0 0 0 0 0 0 0 0 0 
124 0 0 0 0 0 0 0 0 0 
128 0 0 0 0 0 0 0 0 0 
132 0 0 0 0 0 0 0 0 0 
