ITEM: TIMESTEP
16000
ITEM: NUMBER OF SURFS
134
ITEM: BOX BOUNDS oo ao pp
-10 10
0 10
-0.5 0.5
ITEM: SURFS id f_avg_pressure[1] f_avg_pressure[2] f_avg_pressure[3] f_avg_pressure[4] f_avg_shear[1] f_avg_shear[2] f_avg_shear[3] f_avg_heat_flux[*] f_avg_fdrag[*] 
1 0.882763 0.882185 0.0319329 0 0.000846171 -0.0233765 -0.00893084 2618.55 0.00684145 
5 0.797277 0.797272 -0.00264813 0 8.46829e-05 0.0254954 0.000263626 2357.83 0.0556211 
9 0.550282 0.549777 -0.0235735 0 0.00193761 0.0451885 0.0048349 1644.69 0.0726926 
13 0.368686 0.367436 -0.0303324 0 0.00342411 0.0414784 0.000587937 1079.59 0.0718185 
17 0.264804 0.26284 -0.0321912 0 0.00480272 0.0392141 0.00374826 774.245 0.0683422 
21 0.275955 0.27237 -0.0443399 0 0.00659953 0.0405394 9.56107e-05 835.14 0.0883628 
25 0.305852 0.299701 -0.0610322 0 0.0113158 0.0555664 0.00122522 913.96 0.117487 
29 0.347586 0.337589 -0.0827614 0 0.0181858 0.0741812 0.000844072 1054.47 0.155922 
33 0.354668 0.340863 -0.0979887 0 0.0254792 0.0886317 -0.000550273 1113.94 0.182513 
37 0.327247 0.310693 -0.102765 0 0.0322013 0.0973553 -0.000882406 1007.27 0.191146 
41 0.298846 0.2798 -0.10498 0 0.0388894 0.103651 0.0018225 958.705 0.196292 
45 0.26268 0.242102 -0.101917 0 0.0400724 0.095191 -0.00104617 846.813 0.190058 
49 0.220603 0.199781 -0.0935578 0 0.0401488 0.0857327 -0.00322779 721.955 0.175203 
53 0.0693464 0.0327727 -0.0611136 0 0.0909206 0.048757 0.00203545 398.043 0.0936457 
57 0.000828074 -0.000230383 -0.000795381 0 0.00144698 -0.000419121 -4.12555e-05 3.25502 0.000928413 
61 3.12641e-05 -1.67953e-05 -2.63697e-05 0 5.77124e-05 -3.67581e-05 -9.45987e-05 0.235858 3.10498e-05 
65 0 0 0 0 0 0 0 0 0 
69 0.000309678 -0.000166359 -0.000261199 0 0.000403466 -0.000256969 0.000158626 1.04451 0.000163819 
73 0.000635207 -0.000341238 -0.000535765 0 0.00111134 -0.000707831 0.000601298 4.51006 0.000505895 
77 0 0 0 0 0 0 0 0 0 
81 0 0 0 0 0 0 0 0 0 
85 0 0 0 0 0 0 0 0 0 
89 0 0 0 0 0 0 0 0 0 
93 0 0 0 0 0 0 0 0 0 
97 0 0 0 0 0 0 0 0 0 
101 0 0 0 0 0 0 0 0 0 
105 0 0 0 0 0 0 0 0 0 
109 0 0 0 0 0 0 0 0 0 
113 0 0 0 0 0 0 0 0 0 
117 0 0 0 0 0 0 0 0 0 
121 0 0 0 0 0 0 0 0 0 
125 0 0 0 0 0 0 0 0 0 
129 0 0 0 0 0 0 0 0 0 
133 0 0 0 0 0 0 0 0 0 
2 0.956826 0.956495 0.0251569 0 0.000218738 -0.00831671 0.00152256 2885.34 0.0222392 
6 0.745791 0.745726 -0.00984696 0 0.000478259 0.0362193 0.00522608 2206.75 0.0636226 
10 0.493659 0.492973 -0.0260152 0 0.0025367 0.048069 0.0011682 1462.9 0.0729616 
14 0.351549 0.350055 -0.0323761 0 0.00378903 0.0409676 0.00204942 1043.44 0.0739888 
18 0.264538 0.262245 -0.0347516 0 0.00548655 0.041403 -0.00278987 779.274 0.0724827 
22 0.287699 0.28349 -0.0490359 0 0.00835241 0.0482875 -0.000907701 858.143 0.0969024 
26 0.321169 0.314061 -0.0671926 0 0.013059 0.0610382 0.00167584 970.897 0.128533 
30 0.356928 0.345807 -0.0884029 0 0.0208226 0.0814523 -0.00266137 1113.66 0.166194 
34 0.35226 0.337572 -0.100658 0 0.0287219 0.096323 0.00446662 1098.98 0.187933 
38 0.300668 0.284512 -0.0972325 0 0.0318504 0.0931972 -0.00389578 944.119 0.181006 
42 0.254923 0.237781 -0.0919034 0 0.0317712 0.0822014 0.000299718 792.809 0.16993 
46 0.277652 0.254824 -0.110251 0 0.0460322 0.106395 0.00479239 908.823 0.206936 
50 0.208021 0.182762 -0.0993524 0 0.0512294 0.0942379 -0.00234753 700.608 0.169958 
54 0.0353078 0.0103898 -0.0337445 0 0.0750151 0.023097 -0.00112518 287.498 0.0651411 
58 0.000222985 -0.000102079 -0.000198248 0 0.000334421 -0.000172194 1.57267e-05 0.882443 0.000176036 
62 0 0 0 0 0 0 0 0 0 
66 0 0 0 0 0 0 0 0 0 
70 0.000238548 -0.00012815 -0.000201203 0 0.000300567 -0.000191436 -0.00011468 0.639944 0.000117657 
74 0.000325745 -0.000174993 -0.000274749 0 0.000419825 -0.000267394 0.000349225 1.15262 0.000158756 
78 0 0 0 0 0 0 0 0 0 
82 0.000128671 -6.91251e-05 -0.000108527 0 0.000454936 -0.000289768 -0.000224666 1.93872 0.000223957 
86 0 0 0 0 0 0 0 0 0 
90 0 0 0 0 0 0 0 0 0 
94 0 0 0 0 0 0 0 0 0 
98 0 0 0 0 0 0 0 0 0 
102 0 0 0 0 0 0 0 0 0 
106 0 0 0 0 0 0 0 0 0 
110 0 0 0 0 0 0 0 0 0 
114 0 0 0 0 0 0 0 0 0 
118 0 0 0 0 0 0 0 0 0 
122 0 0 0 0 0 0 0 0 0 
126 0 0 0 0 0 0 0 0 0 
130 0 0 0 0 0 0 0 0 0 
134 0 0 0 0 0 0 0 0 0 
3 0.864622 0.864506 0.014199 0 -4.29925e-05 0.0026176 0.00228184 2534.03 0.0334955 
7 0.66024 0.660064 -0.0152445 0 0.00102058 0.0441898 -0.00529073 1963.81 0.0666138 
11 0.460937 0.460034 -0.0288383 0 0.00258566 0.0412471 -0.00279248 1357.33 0.0752799 
15 0.319168 0.317505 -0.0325356 0 0.00388518 0.0379143 -0.00120136 938.272 0.0721627 
19 0.27168 0.26896 -0.0383494 0 0.00571224 0.0400623 0.000172787 794.386 0.0785811 
23 0.289837 0.285095 -0.0522126 0 0.00908516 0.0496075 -0.000580561 863.874 0.102169 
27 0.329684 0.32169 -0.0721605 0 0.0131854 0.0587804 -0.00503618 1005.03 0.136653 
31 0.338096 0.326718 -0.0869728 0 0.0216834 0.081455 0.00202681 1048.76 0.163159 
35 0.317978 0.303807 -0.0938701 0 0.0266368 0.0862089 0.000903356 990.144 0.174445 
39 0.312589 0.294779 -0.104008 0 0.0368959 0.10457 -0.000332203 1010.96 0.194622 
43 0.232302 0.215843 -0.0858851 0 0.0328158 0.0824714 -0.000956343 729.875 0.160349 
47 0.241642 0.220816 -0.098138 0 0.0400901 0.090205 0.000249457 789.75 0.183158 
51 0.170492 0.131333 -0.108716 0 0.0820052 0.0990653 0.00415782 658.407 0.157554 
55 0.0102007 0.00107065 -0.0101443 0 0.0380074 0.00401135 -7.30924e-06 135.947 0.0299223 
59 3.66515e-05 -1.96895e-05 -3.09137e-05 0 0.000129339 -8.23786e-05 -4.00887e-05 0.590655 8.507e-05 
63 0.00016741 -8.99324e-05 -0.000141202 0 0.000390732 -0.000248859 -0.00010219 1.18302 0.000223154 
67 0.000197257 -0.000105968 -0.000166376 0 0.000535463 -0.000341046 -6.46993e-05 0.698398 0.000304033 
71 0 0 0 0 0 0 0 0 0 
75 0 0 0 0 0 0 0 0 0 
79 1.09908e-05 -5.90432e-06 -9.27014e-06 0 0.000133748 -8.51862e-05 -2.49881e-05 0.742382 7.74678e-05 
83 6.00369e-05 -3.22517e-05 -5.06385e-05 0 0.000107267 -6.83183e-05 -5.71153e-06 0.0997905 4.29082e-05 
87 0 0 0 0 0 0 0 0 0 
91 0 0 0 0 0 0 0 0 0 
95 0 0 0 0 0 0 0 0 0 
99 0 0 0 0 0 0 0 0 0 
103 0 0 0 0 0 0 0 0 0 
107 0 0 0 0 0 0 0 0 0 
111 0 0 0 0 0 0 0 0 0 
115 0 0 0 0 0 0 0 0 0 
119 0 0 0 0 0 0 0 0 0 
123 0 0 0 0 0 0 0 0 0 
127 0 0 0 0 0 0 0 0 0 
131 0 0 0 0 0 0 0 0 0 
4 0.900221 0.900202 0.00588951 0 -9.81887e-05 0.015008 0.00558657 2701.79 0.048832 
8 0.599151 0.598825 -0.0197438 0 0.00150519 0.0456521 0.00585062 1765.96 0.0697966 
12 0.383711 0.382704 -0.0277838 0 0.00302072 0.0416084 -0.00215082 1121.31 0.0687341 
16 0.303437 0.301536 -0.0339129 0 0.00479376 0.0426236 -0.00167735 890.005 0.0735034 
20 0.28576 0.282487 -0.0431246 0 0.00665746 0.0436096 0.00332289 844.151 0.0871562 
24 0.295219 0.28985 -0.0560475 0 0.00894289 0.0462482 0.00388019 878.225 0.108324 
28 0.322145 0.313625 -0.073602 0 0.0157183 0.0669769 0.00379556 969.793 0.139373 
32 0.333384 0.321302 -0.0889359 0 0.0220447 0.0796418 -0.000975442 1015.18 0.165927 
36 0.284038 0.270538 -0.0865269 0 0.0268155 0.0838421 0.00145405 865.681 0.161372 
40 0.299677 0.281605 -0.102494 0 0.0351464 0.0965655 0.000771774 938.548 0.19049 
44 0.256576 0.237446 -0.0972132 0 0.0378146 0.0923633 -0.00243104 806.275 0.181462 
48 0.251904 0.229174 -0.104571 0 0.0453868 0.0994677 -0.00263907 822.51 0.196627 
52 0.11993 0.0759492 -0.0928166 0 0.0961423 0.0786706 -0.00243028 538.876 0.128881 
56 0.00191118 -0.000168763 -0.00190371 0 0.00347407 -0.000307975 6.60608e-05 10.909 0.00253121 
60 6.6239e-05 -3.55844e-05 -5.58691e-05 0 8.00984e-05 -5.10166e-05 5.78286e-05 0.284391 3.41583e-05 
64 0.000224718 -0.000120724 -0.000189536 0 4.66655e-05 -2.97234e-05 -0.000117127 0.303429 -5.43126e-05 
68 2.63962e-05 -1.41806e-05 -2.22636e-05 0 8.0375e-05 -5.1194e-05 5.26846e-05 0.44565 4.62961e-05 
72 0.000183205 -9.84191e-05 -0.000154525 0 0.000179877 -0.000114566 5.36842e-05 0.59212 5.4203e-05 
76 0.00011671 -6.26979e-05 -9.84391e-05 0 0.000218965 -0.000139463 -0.000133309 0.329417 9.86737e-05 
80 0.000122646 -6.58851e-05 -0.000103446 0 0.000350235 -0.000223066 9.5167e-05 1.17633 0.000169892 
84 0 0 0 0 0 0 0 0 0 
88 0.000117119 -6.29174e-05 -9.87837e-05 0 4.43039e-05 -2.8218e-05 3.89557e-05 0.106397 -9.85616e-06 
92 0 0 0 0 0 0 0 0 0 
96 0.000212918 -0.000114381 -0.000179586 0 0.000518311 -0.000330118 -0.000156111 0.652455 0.000186443 
100 0 0 0 0 0 0 0 0 0 
104 0 0 0 0 0 0 0 0 0 
108 0 0 0 0 0 0 0 0 0 
112 0 0 0 0 0 0 0 0 0 
116 0 0 0 0 0 0 0 0 0 
120 0 0 0 0 0 0 0 0 0 
124 0 0 0 0 0 0 0 0 0 
128 0 0 0 0 0 0 0 0 0 
132 0 0 0 0 0 0 0 0 0 
