ITEM: TIMESTEP
20000
ITEM: NUMBER OF SURFS
134
ITEM: BOX BOUNDS oo ao pp
-10 10
0 10
-0.5 0.5
ITEM: SURFS id f_avg_pressure[1] f_avg_pressure[2] f_avg_pressure[3] f_avg_pressure[4] f_avg_shear[1] f_avg_shear[2] f_avg_shear[3] f_avg_heat_flux[*] f_avg_fdrag[*] 
1 0.97011 0.969475 0.0350926 0 0.00100183 -0.0276767 -0.000898245 2906.26 0.00751895 
5 0.814547 0.814542 -0.00270549 0 9.42611e-05 0.0283792 -0.000735654 2421.04 0.0568265 
9 0.539756 0.539261 -0.0231226 0 0.00195079 0.0454959 0.00378484 1600.55 0.0713088 
13 0.363209 0.361977 -0.0298818 0 0.00362441 0.0439047 -0.00210969 1061.81 0.0708003 
17 0.269132 0.267136 -0.0327173 0 0.00463472 0.0378424 0.00213951 790.192 0.0693962 
21 0.284545 0.280848 -0.0457201 0 0.00727744 0.0447037 0.000501355 854.392 0.091263 
25 0.305932 0.299779 -0.0610481 0 0.0113893 0.0559273 0.002429 913.83 0.117544 
29 0.327984 0.318552 -0.0780943 0 0.0172519 0.0703716 0.00017385 999.38 0.14717 
33 0.34129 0.328006 -0.0942925 0 0.0245364 0.0853524 -0.00289054 1052.98 0.175637 
37 0.325129 0.308682 -0.1021 0 0.0321923 0.0973281 0.000847052 1019.68 0.19002 
41 0.29427 0.275516 -0.103372 0 0.037348 0.0995425 0.00366717 939.695 0.192703 
45 0.258291 0.238058 -0.100215 0 0.0402361 0.0955797 0.000396963 833.493 0.187444 
49 0.225848 0.204531 -0.0957823 0 0.0418057 0.0892709 -0.00152012 743.477 0.179881 
53 0.071442 0.0337631 -0.0629604 0 0.0937103 0.050253 0.00152235 414.546 0.0965075 
57 0.000605235 -0.000168386 -0.000581339 0 0.00106534 -0.000308576 8.11195e-05 2.67352 0.000684481 
61 5.37018e-05 -2.88491e-05 -4.52948e-05 0 0.000116113 -7.39543e-05 -7.96272e-05 0.396023 6.62197e-05 
65 9.29636e-06 -4.99408e-06 -7.84101e-06 0 3.17363e-05 -2.02134e-05 -1.80328e-05 0.0561635 1.93846e-05 
69 0.000132719 -7.12966e-05 -0.000111943 0 0.000172914 -0.000110129 6.79825e-05 0.447646 7.02083e-05 
73 0.000297548 -0.000159845 -0.000250967 0 0.000516269 -0.000328821 0.000248062 2.06891 0.000234142 
77 2.7556e-05 -1.4803e-05 -2.32422e-05 0 0.000192797 -0.000122793 6.29155e-05 0.405044 0.000110883 
81 0.000119488 -6.41901e-05 -0.000100782 0 0.00024091 -0.00015344 -2.95232e-05 0.816152 0.000104083 
85 0 0 0 0 0 0 0 0 0 
89 0 0 0 0 0 0 0 0 0 
93 0.000286771 -0.00015406 -0.000241875 0 0.000413075 -0.000263104 -0.00012871 0.502699 0.000126155 
97 0 0 0 0 0 0 0 0 0 
101 0 0 0 0 0 0 0 0 0 
105 0 0 0 0 0 0 0 0 0 
109 0 0 0 0 0 0 0 0 0 
113 5.96093e-05 -3.20225e-05 -5.02775e-05 0 0.000546504 -0.000348077 -4.23131e-05 1.62222 0.000163182 
117 0 0 0 0 0 0 0 0 0 
121 0 0 0 0 0 0 0 0 0 
125 0 0 0 0 0 0 0 0 0 
129 0 0 0 0 0 0 0 0 0 
133 0 0 0 0 0 0 0 0 0 
2 0.984852 0.984511 0.0258937 0 0.000244642 -0.00930161 0.000236735 2969.9 0.0228911 
6 0.755174 0.755108 -0.00997083 0 0.000493704 0.037389 0.00305728 2249.01 0.0644238 
10 0.498186 0.497494 -0.0262538 0 0.00247615 0.0469217 0.0026313 1479.46 0.0736183 
14 0.34776 0.346282 -0.0320271 0 0.00416164 0.0449962 0.00128653 1031.31 0.0732777 
18 0.266786 0.264474 -0.035047 0 0.00537876 0.0405895 -0.00205116 779.691 0.0730569 
22 0.267827 0.263908 -0.0456488 0 0.00745064 0.0430741 0.000436306 799.629 0.0901012 
26 0.312929 0.306004 -0.0654687 0 0.0127345 0.0595214 0.00163151 946.587 0.125239 
30 0.350101 0.339193 -0.086712 0 0.0210091 0.0821818 -0.000403197 1086.36 0.163281 
34 0.332285 0.31843 -0.0949506 0 0.0262885 0.088162 0.00184091 1033.65 0.176864 
38 0.301404 0.285208 -0.0974706 0 0.0318734 0.0932647 -0.000962327 950.492 0.181418 
42 0.25942 0.241975 -0.0935246 0 0.0343457 0.0888622 -0.00143427 823.179 0.174197 
46 0.259864 0.238499 -0.103188 0 0.0428115 0.098951 0.00189441 855.68 0.193492 
50 0.220973 0.194141 -0.105539 0 0.0533088 0.0980631 -0.00137432 752.888 0.179734 
54 0.0343819 0.0101174 -0.0328596 0 0.0759909 0.0233974 -0.00112133 292.109 0.0656775 
58 0.000364826 -0.000167011 -0.000324353 0 0.00066041 -0.000340048 3.69265e-05 1.8653 0.000373829 
62 0.000124773 -6.70289e-05 -0.00010524 0 0.000231866 -0.000147679 -6.94639e-05 0.724049 0.000123686 
66 2.50101e-05 -1.34353e-05 -2.10949e-05 0 1.59022e-05 -1.01281e-05 -2.7133e-05 0.0236357 1.76723e-06 
70 0.000351248 -0.000188694 -0.00029626 0 0.000557852 -0.000355306 -0.000264775 1.36704 0.000251915 
74 0.000316487 -0.000170019 -0.000266941 0 0.000619408 -0.000394512 0.000198672 1.80341 0.000291397 
78 0.000108445 -5.82593e-05 -9.14672e-05 0 0.000158625 -0.000101035 6.86622e-05 0.497603 6.16709e-05 
82 0.000292934 -0.000157371 -0.000247073 0 0.000408186 -0.000259991 -7.67319e-05 1.28806 0.000145595 
86 6.87688e-05 -3.69434e-05 -5.80029e-05 0 3.41582e-05 -2.17562e-05 2.64226e-06 0.0220954 -1.52217e-06 
90 0 0 0 0 0 0 0 0 0 
94 0 0 0 0 0 0 0 0 0 
98 4.21463e-05 -2.26412e-05 -3.55483e-05 0 0.000134923 -8.5934e-05 1.53145e-05 0.102292 4.99183e-05 
102 0 0 0 0 0 0 0 0 0 
106 0 0 0 0 0 0 0 0 0 
110 0 0 0 0 0 0 0 0 0 
114 0 0 0 0 0 0 0 0 0 
118 0 0 0 0 0 0 0 0 0 
122 0 0 0 0 0 0 0 0 0 
126 0 0 0 0 0 0 0 0 0 
130 0 0 0 0 0 0 0 0 0 
134 0 0 0 0 0 0 0 0 0 
3 0.897419 0.897298 0.0147376 0 -9.84102e-05 0.00599171 0.00123851 2652.66 0.034764 
7 0.647686 0.647514 -0.0149546 0 0.00101024 0.043742 -0.00261081 1910.35 0.0653481 
11 0.461564 0.460659 -0.0288774 0 0.00271056 0.0432394 0.000757964 1358.98 0.075402 
15 0.322761 0.32108 -0.0329019 0 0.00416201 0.0406158 5.29033e-05 959.882 0.0730274 
19 0.266717 0.264046 -0.0376488 0 0.00567298 0.0397869 -0.000934662 779.249 0.0771641 
23 0.287627 0.282922 -0.0518145 0 0.00884837 0.0483145 -0.000731306 858.459 0.101332 
27 0.331619 0.323578 -0.0725838 0 0.0139087 0.0620047 -0.00183709 1004.68 0.137718 
31 0.328586 0.317528 -0.0845264 0 0.0211553 0.079471 0.00169785 1021.25 0.158607 
35 0.313608 0.299631 -0.0925799 0 0.0268057 0.0867554 0.000155535 973.835 0.17233 
39 0.304982 0.287605 -0.101476 0 0.0343986 0.0974927 0.00072339 983.747 0.188947 
43 0.240389 0.223357 -0.088875 0 0.0330044 0.0829452 -0.00136881 752.303 0.165316 
47 0.239473 0.218834 -0.0972571 0 0.040499 0.091125 0.00280965 784.12 0.182053 
51 0.16683 0.128512 -0.106381 0 0.0798629 0.0964772 -0.000647879 646.91 0.153888 
55 0.0099301 0.00104225 -0.00987525 0 0.0335905 0.00354518 0.000859195 119.175 0.0265185 
59 6.24692e-05 -3.3559e-05 -5.26896e-05 0 0.000102694 -6.54074e-05 -2.74745e-06 0.386322 5.36369e-05 
63 9.99316e-05 -5.36832e-05 -8.42878e-05 0 0.000211285 -0.000134568 -5.54477e-05 0.576713 0.00011692 
67 0.000158007 -8.48826e-05 -0.000133271 0 0.000548318 -0.000349234 -1.50713e-05 1.34782 0.000328058 
71 0 0 0 0 0 0 0 0 0 
75 1.73282e-05 -9.30893e-06 -1.46154e-05 0 0.00010409 -6.62975e-05 4.66463e-05 0.270032 6.06554e-05 
79 4.71032e-06 -2.53042e-06 -3.97292e-06 0 5.73204e-05 -3.65084e-05 -1.07092e-05 0.318164 3.32005e-05 
83 2.57301e-05 -1.38222e-05 -2.17022e-05 0 4.59714e-05 -2.92793e-05 -2.4478e-06 0.0427673 1.83892e-05 
87 3.28326e-05 -1.76379e-05 -2.76926e-05 0 2.22254e-05 -1.41557e-05 -4.15889e-05 0.0483264 2.46809e-06 
91 0.000181237 -9.73625e-05 -0.000152864 0 0.000350436 -0.0002232 -0.000204036 1.28003 0.000127558 
95 0 0 0 0 0 0 0 0 0 
99 0 0 0 0 0 0 0 0 0 
103 0.000109568 -5.88606e-05 -9.24154e-05 0 0.000365273 -0.000232647 2.38638e-05 1.39859 0.000123213 
107 0 0 0 0 0 0 0 0 0 
111 0 0 0 0 0 0 0 0 0 
115 0 0 0 0 0 0 0 0 0 
119 0 0 0 0 0 0 0 0 0 
123 0 0 0 0 0 0 0 0 0 
127 0 0 0 0 0 0 0 0 0 
131 0 0 0 0 0 0 0 0 0 
4 0.892527 0.892508 0.00583918 0 -0.000106734 0.0163141 0.000952005 2665.34 0.0484142 
8 0.591405 0.591084 -0.0194886 0 0.00149851 0.0454494 0.00161729 1747.11 0.0688958 
12 0.404547 0.403486 -0.0292926 0 0.00336509 0.0463519 -0.00171737 1184.77 0.0724987 
16 0.305673 0.303758 -0.0341628 0 0.00463232 0.0411882 0.000738536 902.585 0.0739978 
20 0.283483 0.280236 -0.0427809 0 0.00659866 0.0432244 0.000669264 840.531 0.08646 
24 0.283476 0.27832 -0.053818 0 0.00949954 0.049127 0.00240147 848.671 0.104345 
28 0.325063 0.316465 -0.0742687 0 0.0155235 0.0661471 -0.000782891 985.837 0.140493 
32 0.326336 0.314509 -0.0870557 0 0.0215028 0.0776838 -0.000959456 996.988 0.162383 
36 0.302306 0.287938 -0.092092 0 0.0285925 0.0893983 0.000930131 936.506 0.171779 
40 0.298509 0.280507 -0.102094 0 0.0347466 0.0954671 -0.000893722 945.659 0.189589 
44 0.245426 0.227128 -0.0929886 0 0.0358083 0.087463 -0.000706123 772.336 0.173336 
48 0.245621 0.223457 -0.101963 0 0.0440709 0.0965837 -0.00088646 806.465 0.191591 
52 0.116627 0.0738575 -0.0902604 0 0.0946105 0.0774171 -0.000470428 526.537 0.126167 
56 0.00208464 -0.000184081 -0.0020765 0 0.00364218 -0.000322878 -0.000136433 10.8742 0.00264822 
60 4.4269e-05 -2.37818e-05 -3.73385e-05 0 5.5706e-05 -3.54805e-05 4.55637e-05 0.192715 2.44973e-05 
64 0.000153629 -8.25336e-05 -0.000129577 0 0.00013423 -8.54973e-05 -1.86211e-05 0.504455 3.79128e-05 
68 3.02139e-05 -1.62315e-05 -2.54836e-05 0 6.95873e-05 -4.43229e-05 4.14162e-05 0.269637 3.73168e-05 
72 0.000393068 -0.000211159 -0.000331533 0 0.000560233 -0.000356821 0.000223406 1.94721 0.000232279 
76 5.00187e-05 -2.68705e-05 -4.21882e-05 0 9.38422e-05 -5.977e-05 -5.71326e-05 0.141179 4.22887e-05 
80 5.25624e-05 -2.82365e-05 -4.43341e-05 0 0.000150101 -9.55996e-05 4.07858e-05 0.504142 7.2811e-05 
84 3.58935e-05 -1.92823e-05 -3.02744e-05 0 9.01538e-05 -5.74207e-05 9.21693e-05 0.408867 3.99354e-05 
88 0.000107806 -5.79145e-05 -9.09289e-05 0 0.000136973 -8.72409e-05 5.36486e-05 0.491783 4.18629e-05 
92 0 0 0 0 0 0 0 0 0 
96 0.000113464 -6.09534e-05 -9.57015e-05 0 0.000304864 -0.000194171 -0.000171856 0.545682 0.000112582 
100 0 0 0 0 0 0 0 0 0 
104 0 0 0 0 0 0 0 0 0 
108 0 0 0 0 0 0 0 0 0 
112 0 0 0 0 0 0 0 0 0 
116 0 0 0 0 0 0 0 0 0 
120 0 0 0 0 0 0 0 0 0 
124 0 0 0 0 0 0 0 0 0 
128 0 0 0 0 0 0 0 0 0 
132 0 0 0 0 0 0 0 0 0 
