ITEM: TIMESTEP
14000
ITEM: NUMBER OF SURFS
134
ITEM: BOX BOUNDS oo ao pp
-10 10
0 10
-0.5 0.5
ITEM: SURFS id f_avg_pressure[1] f_avg_pressure[2] f_avg_pressure[3] f_avg_pressure[4] f_avg_shear[1] f_avg_shear[2] f_avg_shear[3] f_avg_heat_flux[*] f_avg_fdrag[*] 
1 0.865554 0.864987 0.0313104 0 0.000533431 -0.0147367 -0.00945215 2531.02 0.00670578 
5 0.820848 0.820844 -0.00272642 0 0.000114629 0.0345112 -0.00174252 2424.93 0.0572675 
9 0.580393 0.57986 -0.0248634 0 0.00208168 0.0485485 0.0115624 1758 0.0766753 
13 0.350516 0.349328 -0.0288376 0 0.00320347 0.0388057 0.00180902 1010.62 0.0682691 
17 0.265764 0.263793 -0.0323078 0 0.00438478 0.0358016 0.00751802 763.118 0.0684787 
21 0.263204 0.259784 -0.042291 0 0.0065935 0.0405024 -0.000369389 806.812 0.0843742 
25 0.307399 0.301216 -0.0613409 0 0.0105672 0.0518905 -0.00151427 920.211 0.117777 
29 0.356733 0.346474 -0.0849394 0 0.0182915 0.0746122 -0.00265304 1081.03 0.159862 
33 0.350614 0.336967 -0.0968687 0 0.0254473 0.0885211 0.00369436 1104.16 0.180556 
37 0.343378 0.326008 -0.107831 0 0.0346781 0.104843 0.00410276 1063.11 0.201064 
41 0.310039 0.29028 -0.108912 0 0.0413831 0.110297 0.000166281 994.16 0.204282 
45 0.264663 0.24393 -0.102687 0 0.0400564 0.0951529 0.00217748 853.1 0.191279 
49 0.239656 0.217036 -0.101638 0 0.0442164 0.0944187 -0.000526277 785.566 0.190773 
53 0.0640152 0.0302533 -0.0564153 0 0.0807035 0.043278 0.00128635 346.447 0.0840031 
57 0.00157225 -0.000437425 -0.00151018 0 0.00241919 -0.000700722 4.21105e-05 5.44469 0.00151233 
61 0 0 0 0 0 0 0 0 0 
65 0 0 0 0 0 0 0 0 0 
69 0.000133204 -7.1557e-05 -0.000112351 0 0.00019788 -0.00012603 7.69887e-05 0.404147 8.72777e-05 
73 0.00140686 -0.000755777 -0.00118662 0 0.00220724 -0.00140583 0.0015433 9.80077 0.000953495 
77 0 0 0 0 0 0 0 0 0 
81 0 0 0 0 0 0 0 0 0 
85 0 0 0 0 0 0 0 0 0 
89 0 0 0 0 0 0 0 0 0 
93 0 0 0 0 0 0 0 0 0 
97 0 0 0 0 0 0 0 0 0 
101 0 0 0 0 0 0 0 0 0 
105 0 0 0 0 0 0 0 0 0 
109 0 0 0 0 0 0 0 0 0 
113 0 0 0 0 0 0 0 0 0 
117 0 0 0 0 0 0 0 0 0 
121 0 0 0 0 0 0 0 0 0 
125 0 0 0 0 0 0 0 0 0 
129 0 0 0 0 0 0 0 0 0 
133 0 0 0 0 0 0 0 0 0 
2 0.909625 0.909311 0.0239159 0 2.63503e-05 -0.00100187 0.0015896 2710.46 0.0211379 
6 0.761047 0.76098 -0.0100484 0 0.000528395 0.0400162 0.00502268 2254.62 0.0649274 
10 0.513358 0.512644 -0.0270533 0 0.00211893 0.0401524 0.000226584 1540.43 0.0757965 
14 0.341481 0.34003 -0.0314489 0 0.003678 0.039767 0.00464499 1004.12 0.0718694 
18 0.259307 0.25706 -0.0340645 0 0.005676 0.0428326 -0.00406578 768.011 0.0711301 
22 0.290239 0.285992 -0.0494688 0 0.00863605 0.0499273 -0.00227888 885.525 0.0978275 
26 0.292691 0.286213 -0.0612346 0 0.0107782 0.0503777 0.00016749 860.837 0.116694 
30 0.365893 0.354493 -0.0906233 0 0.0210863 0.0824835 -0.00539092 1143.03 0.170251 
34 0.361136 0.346078 -0.103195 0 0.0284703 0.0954791 0.00603011 1122.65 0.192169 
38 0.321064 0.303812 -0.103828 0 0.0346922 0.101513 0.000911438 1004.27 0.193675 
42 0.242042 0.225766 -0.0872596 0 0.0301464 0.0779974 0.000587392 755.241 0.161331 
46 0.275288 0.252655 -0.109312 0 0.0461957 0.106773 0.00469052 914.094 0.205556 
50 0.221562 0.194659 -0.10582 0 0.0550365 0.101241 -0.000604626 761.032 0.181365 
54 0.0329807 0.00970506 -0.0315204 0 0.0644513 0.0198444 -0.0022134 250.479 0.0565614 
58 0.000668956 -0.000306236 -0.000594745 0 0.00100326 -0.000516583 4.71802e-05 2.64733 0.000528109 
62 0 0 0 0 0 0 0 0 0 
66 0 0 0 0 0 0 0 0 0 
70 0 0 0 0 0 0 0 0 0 
74 0 0 0 0 0 0 0 0 0 
78 0 0 0 0 0 0 0 0 0 
82 0 0 0 0 0 0 0 0 0 
86 0 0 0 0 0 0 0 0 0 
90 0 0 0 0 0 0 0 0 0 
94 0 0 0 0 0 0 0 0 0 
98 0 0 0 0 0 0 0 0 0 
102 0 0 0 0 0 0 0 0 0 
106 0 0 0 0 0 0 0 0 0 
110 0 0 0 0 0 0 0 0 0 
114 0 0 0 0 0 0 0 0 0 
118 0 0 0 0 0 0 0 0 0 
122 0 0 0 0 0 0 0 0 0 
126 0 0 0 0 0 0 0 0 0 
130 0 0 0 0 0 0 0 0 0 
134 0 0 0 0 0 0 0 0 0 
3 0.852498 0.852383 0.0139999 0 -5.45829e-05 0.00332328 -2.76991e-05 2491.15 0.0330253 
7 0.708222 0.708033 -0.0163523 0 0.00107403 0.0465041 -0.00221415 2128.88 0.0714528 
11 0.491625 0.490662 -0.0307582 0 0.002173 0.0346642 -0.00418334 1457.69 0.0801967 
15 0.327493 0.325787 -0.0333843 0 0.00388648 0.037927 0.00314973 954.09 0.0740225 
19 0.273113 0.270378 -0.0385516 0 0.0057926 0.0406259 -0.00449832 808.733 0.0790098 
23 0.282554 0.277931 -0.0509006 0 0.00818463 0.0446903 0.000272543 831.681 0.0993684 
27 0.3099 0.302385 -0.06783 0 0.0117845 0.0525351 -0.00326596 949.87 0.128204 
31 0.296866 0.286875 -0.0763666 0 0.0175141 0.0657927 0.00738988 883.482 0.142547 
35 0.321399 0.307075 -0.09488 0 0.0264274 0.0855312 0.00240649 992.911 0.17606 
39 0.315514 0.297537 -0.104981 0 0.0368251 0.10437 -0.000615024 1016.74 0.196199 
43 0.23452 0.217904 -0.0867051 0 0.030754 0.0772896 0.000238605 724.534 0.160348 
47 0.233143 0.21305 -0.0946863 0 0.040188 0.0904253 0.00275315 758.113 0.177774 
51 0.192086 0.147967 -0.122486 0 0.0933523 0.112773 0.0014708 747.668 0.178218 
55 0.0132326 0.00138887 -0.0131595 0 0.0505102 0.0053309 0.000912421 177.139 0.0397394 
59 8.94642e-05 -4.80609e-05 -7.54585e-05 0 2.98277e-05 -1.89978e-05 2.17679e-05 0.179871 -1.41459e-05 
63 0.000456766 -0.000245375 -0.000385261 0 0.00113326 -0.000721778 -0.000252347 3.46021 0.000658694 
67 0 0 0 0 0 0 0 0 0 
71 0 0 0 0 0 0 0 0 0 
75 0 0 0 0 0 0 0 0 0 
79 0 0 0 0 0 0 0 0 0 
83 0 0 0 0 0 0 0 0 0 
87 0 0 0 0 0 0 0 0 0 
91 0 0 0 0 0 0 0 0 0 
95 0 0 0 0 0 0 0 0 0 
99 0 0 0 0 0 0 0 0 0 
103 0 0 0 0 0 0 0 0 0 
107 0 0 0 0 0 0 0 0 0 
111 0 0 0 0 0 0 0 0 0 
115 0 0 0 0 0 0 0 0 0 
119 0 0 0 0 0 0 0 0 0 
123 0 0 0 0 0 0 0 0 0 
127 0 0 0 0 0 0 0 0 0 
131 0 0 0 0 0 0 0 0 0 
4 0.888066 0.888047 0.00580999 0 -0.000112099 0.0171341 0.00396781 2643.76 0.0481719 
8 0.652903 0.652548 -0.0215151 0 0.00167031 0.0506599 0.0137959 1940.15 0.0760618 
12 0.395811 0.394772 -0.02866 0 0.00328298 0.0452208 -0.00629048 1160.98 0.0709313 
16 0.319016 0.317017 -0.0356541 0 0.00423971 0.0376973 0.00475575 938.293 0.0770852 
20 0.26515 0.262113 -0.0400143 0 0.00633003 0.0414648 0.00222341 783.528 0.0809163 
24 0.284747 0.279568 -0.0540594 0 0.00830194 0.0429336 0.0019384 858.742 0.104364 
28 0.351083 0.341797 -0.0802137 0 0.0163138 0.0695144 0.00856586 1059.22 0.151547 
32 0.305222 0.294161 -0.0814233 0 0.0216716 0.0782938 -0.00506932 932.765 0.152631 
36 0.289655 0.275888 -0.0882382 0 0.0268996 0.0841052 -0.00423405 895.795 0.164321 
40 0.276479 0.259806 -0.09456 0 0.0317624 0.0872679 0.00145631 850.051 0.175345 
44 0.277268 0.256596 -0.105053 0 0.0412582 0.100775 -0.00504897 917.538 0.196356 
48 0.26314 0.239396 -0.109236 0 0.0489036 0.107175 -0.00278771 890.936 0.206466 
52 0.129337 0.0819062 -0.100097 0 0.103371 0.0845855 -0.00298559 576.603 0.138756 
56 0.00210913 -0.000186243 -0.00210089 0 0.00309383 -0.000274267 0.00114965 10.5594 0.00222663 
60 0 0 0 0 0 0 0 0 0 
64 0.000262159 -0.000140838 -0.000221115 0 0.00010048 -6.40006e-05 -0.000453338 0.531382 -2.95976e-05 
68 0 0 0 0 0 0 0 0 0 
72 0 0 0 0 0 0 0 0 0 
76 0 0 0 0 0 0 0 0 0 
80 0 0 0 0 0 0 0 0 0 
84 0 0 0 0 0 0 0 0 0 
88 0 0 0 0 0 0 0 0 0 
92 0 0 0 0 0 0 0 0 0 
96 0.000638754 -0.000343142 -0.000538759 0 0.00155493 -0.000990355 -0.000468332 1.95737 0.000559328 
100 0 0 0 0 0 0 0 0 0 
104 0 0 0 0 0 0 0 0 0 
108 0 0 0 0 0 0 0 0 0 
112 0 0 0 0 0 0 0 0 0 
116 0 0 0 0 0 0 0 0 0 
120 0 0 0 0 0 0 0 0 0 
124 0 0 0 0 0 0 0 0 0 
128 0 0 0 0 0 0 0 0 0 
132 0 0 0 0 0 0 0 0 0 
