ITEM: TIMESTEP
100
ITEM: NUMBER OF SURFS
4
ITEM: BOX BOUNDS oo oo pp
-2 1
-1 2
-0.5 0.5
ITEM: SURFS c_fx[1] 
0 
0 
2.9082 
0 
