ITEM: TIMESTEP
19000
ITEM: NUMBER OF SURFS
134
ITEM: BOX BOUNDS oo ao pp
-10 10
0 10
-0.5 0.5
ITEM: SURFS id f_avg_pressure[1] f_avg_pressure[2] f_avg_pressure[3] f_avg_pressure[4] f_avg_shear[1] f_avg_shear[2] f_avg_shear[3] f_avg_heat_flux[*] f_avg_fdrag[*] 
1 32.334 32.3129 1.16965 0 0.000988227 -0.0273009 0.000700705 16623.7 0.250357 
5 32.2069 32.2067 -0.106974 0 0.000628459 0.18921 -0.00327299 17864.1 2.24668 
9 32.0793 32.0498 -1.37424 0 0.022255 0.519026 -0.000271868 18807.7 4.22575 
13 31.7689 31.6612 -2.61369 0 0.0574356 0.695753 -0.00880544 18173.2 6.14245 
17 31.447 31.2138 -3.82289 0 0.111433 0.909844 -0.0077785 18224.9 7.99884 
21 31.0311 30.6279 -4.98601 0 0.191479 1.17621 0.000346014 18507.3 9.76195 
25 30.5116 29.8979 -6.08853 0 0.288601 1.41718 -0.0112572 18535.7 11.403 
29 29.8252 28.9674 -7.10148 0 0.396503 1.61736 -0.0245928 18588.9 12.8691 
33 28.9664 27.8389 -8.00291 0 0.521524 1.81417 0.00346696 18313.6 14.1292 
37 28.0097 26.5928 -8.79584 0 0.693601 2.09699 0.00320013 18384.5 15.2107 
41 26.7456 25.041 -9.39531 0 0.849934 2.2653 0.0323989 17991.3 15.9471 
45 25.0767 23.1122 -9.72953 0 1.04131 2.4736 -0.0258791 17674.9 16.2686 
49 21.6813 19.6349 -9.19504 0 1.60116 3.41909 0.0180307 18274.6 15.5071 
53 6.59645 3.11745 -5.81332 0 2.94043 1.57684 -0.0279118 9310.26 4.5863 
57 0.737482 -0.205179 -0.708365 0 0.573161 -0.166017 0.00856691 1225.06 0.280815 
61 0.243753 -0.130946 -0.205594 0 0.178305 -0.113566 0.00264932 403.823 0.0359381 
65 0.219414 -0.117871 -0.185065 0 0.15581 -0.099238 -0.00539235 377.8 0.0275007 
69 0.205046 -0.110151 -0.172947 0 0.135472 -0.0862828 0.00370644 336.356 0.017495 
73 0.188929 -0.101494 -0.159352 0 0.131274 -0.0836105 -0.00191904 312.206 0.0195626 
77 0.184675 -0.0992073 -0.155765 0 0.121334 -0.0772781 0.00237229 325.689 0.0137841 
81 0.17637 -0.0947473 -0.148759 0 0.112388 -0.0715816 0.00671479 291.875 0.0103896 
85 0.1722 -0.0925076 -0.145242 0 0.109594 -0.0698024 -0.00733151 274.68 0.00948273 
89 0.170392 -0.0915364 -0.143716 0 0.10568 -0.0673103 -0.00384801 280.394 0.00736941 
93 0.160153 -0.0860377 -0.13508 0 0.0985591 -0.0627763 -0.00859534 265.728 0.00609859 
97 0.185361 -0.0995792 -0.156341 0 0.102822 -0.0654909 0.00905039 278.522 0.00146918 
101 0.161095 -0.0865413 -0.135876 0 0.0840321 -0.0535212 0.00140893 254.167 -0.00105163 
105 0.189847 -0.101987 -0.160127 0 0.114892 -0.0731758 0.00117116 324.172 0.00496995 
109 0.181758 -0.097641 -0.153304 0 0.0951519 -0.0606034 -0.00374894 272.65 -0.000874057 
113 0.192164 -0.103232 -0.162081 0 0.104401 -0.066495 0.0130585 313.398 0.000370999 
117 0.0642165 -0.0642165 0 0 0 0.00327011 0.000498998 79.6095 -0.0181263 
121 0.0769348 -0.0769348 0 0 0 0.0137607 -0.00222516 88.5905 -0.0167526 
125 0.0986968 -0.0986968 0 0 0 0.00545226 0.00643053 103.401 -0.0151235 
129 0.10094 -0.10094 0 0 0 0.00269693 2.1186e-05 93.0229 -0.00895467 
133 0.0991837 -0.0991837 0 0 0 0.0115387 0.0016222 98.5181 -0.00239969 
2 32.2857 32.2745 0.848854 0 -0.000906667 0.0344726 0.00508932 17107.7 0.750214 
6 32.2146 32.2118 -0.425341 0 0.00404702 0.306488 -0.013581 18072.2 2.74677 
10 32.0289 31.9844 -1.68788 0 0.0288727 0.54712 -0.00959436 18420.8 4.71381 
14 31.6886 31.5539 -2.91837 0 0.0644558 0.696906 0.0296278 18447.5 6.6114 
18 31.421 31.1487 -4.1277 0 0.132331 0.998603 0.0250791 18741.1 8.46868 
22 30.8418 30.3906 -5.25673 0 0.213788 1.23596 -0.0212658 18421.8 10.1618 
26 30.2591 29.5895 -6.33059 0 0.306017 1.43034 -0.00851022 18463.1 11.7466 
30 29.5133 28.5937 -7.30977 0 0.421483 1.64872 0.00440785 18306.1 13.1527 
34 28.7897 27.5893 -8.22668 0 0.57421 1.92569 -0.0406071 18378.6 14.4498 
38 27.727 26.2371 -8.96659 0 0.71773 2.10015 0.0166727 18255.6 15.4222 
42 26.42 24.6434 -9.52478 0 0.883225 2.28516 -0.00139154 17821.2 16.0924 
46 24.509 22.494 -9.73211 0 1.15599 2.67186 -0.00535178 18022.1 16.267 
50 18.9491 16.6482 -9.05026 0 2.01942 3.71478 -0.0387367 17682.7 13.5592 
54 4.24057 1.24785 -4.05281 0 2.26483 0.697337 0.00934136 6049.39 2.67924 
58 0.374168 -0.171288 -0.33266 0 0.300894 -0.154931 -8.93927e-05 649.532 0.0981972 
62 0.234412 -0.125928 -0.197715 0 0.17074 -0.108747 0.00581221 413.885 0.0336251 
66 0.21339 -0.114632 -0.179985 0 0.14925 -0.0950567 -0.0119476 375.292 0.0247997 
70 0.213645 -0.114772 -0.180199 0 0.148297 -0.0944528 0.00757047 360.315 0.0228775 
74 0.185079 -0.099426 -0.156105 0 0.118941 -0.0757554 -0.00362524 306.527 0.0126538 
78 0.190341 -0.102256 -0.160542 0 0.122713 -0.0781613 -0.000952592 304.784 0.0125705 
82 0.191633 -0.10295 -0.161631 0 0.120839 -0.0769673 -0.000795601 303.335 0.0103843 
86 0.179196 -0.0962664 -0.151143 0 0.109227 -0.0695696 0.00724579 284.954 0.00708345 
90 0.195867 -0.105221 -0.165204 0 0.117194 -0.074643 0.000178029 334.006 0.00613645 
94 0.178734 -0.0960171 -0.150754 0 0.111028 -0.0707151 -0.00375616 290.766 0.00718352 
98 0.170789 -0.0917489 -0.144052 0 0.0873752 -0.0556504 0.00411445 258.902 -0.00194447 
102 0.181562 -0.097536 -0.153139 0 0.105939 -0.0674742 0.000150035 306.352 0.00345054 
106 0.177514 -0.0953613 -0.149724 0 0.0958223 -0.0610305 0.0068148 268.083 0.000173626 
110 0.185867 -0.0998483 -0.15677 0 0.102903 -0.0655398 -0.0058274 295.224 0.00104654 
114 0.176734 -0.0949433 -0.149066 0 0.0910075 -0.0579646 0.00289719 275.794 -0.00121491 
118 0.0731865 -0.0731865 0 0 0 0.0107988 0.00429228 77.4755 -0.0194778 
122 0.081679 -0.081679 0 0 0 0.00649116 -0.003574 87.0439 -0.0164682 
126 0.0955711 -0.0955711 0 0 0 0.0080307 0.00530465 96.6776 -0.013103 
130 0.0991564 -0.0991564 0 0 0 0.00381269 -0.000269774 88.8288 -0.00719709 
134 0.102272 -0.102272 0 0 0 0.00522756 0.0012845 82.8501 -0.000824801 
3 32.2947 32.2903 0.530349 0 -0.00219204 0.133462 -0.0185603 17429.4 1.25107 
7 32.2356 32.227 -0.744296 0 0.00800968 0.346808 -0.0213324 17960.7 3.24814 
11 31.9215 31.8589 -1.99715 0 0.0353797 0.564385 0.00509769 18220.2 5.19001 
15 31.7004 31.5352 -3.2315 0 0.0860848 0.840075 -0.0109144 18618.8 7.10001 
19 31.2804 30.9672 -4.41543 0 0.146402 1.02678 0.0181403 18401.2 8.9013 
23 30.7429 30.24 -5.53818 0 0.230275 1.25737 -0.0074261 18635.9 10.5824 
27 30.1716 29.44 -6.60388 0 0.33447 1.49106 -0.00943478 18475.5 12.1501 
31 29.4214 28.4313 -7.56845 0 0.448887 1.68627 0.00932534 18335.3 13.5248 
35 28.5941 27.3198 -8.44125 0 0.599323 1.93968 -0.0221455 18483.5 14.7388 
39 27.4264 25.8637 -9.12557 0 0.751826 2.13083 0.0333088 17995.6 15.6176 
43 25.983 24.142 -9.60625 0 0.955782 2.40203 -0.00324059 18093.5 16.1844 
47 23.8835 21.8251 -9.69982 0 1.26497 2.84627 0.0281116 18069.3 16.2094 
51 14.337 11.044 -9.14213 0 2.83058 3.41944 0.0399255 15483.8 10.2466 
55 2.36563 0.248293 -2.35257 0 1.48997 0.157254 0.0040363 3645.72 1.331 
59 0.276922 -0.148765 -0.23357 0 0.198857 -0.126656 -0.00394237 440.375 0.0388633 
63 0.218895 -0.117591 -0.184628 0 0.149102 -0.0949637 -0.00019015 361.913 0.0233773 
67 0.203658 -0.109407 -0.171775 0 0.140269 -0.08934 -0.000762178 347.121 0.021847 
71 0.200253 -0.107579 -0.168902 0 0.133832 -0.085242 -0.00120095 357.041 0.0176925 
75 0.198672 -0.106729 -0.167569 0 0.127183 -0.0810059 0.001757 328.188 0.0130896 
79 0.190056 -0.1021 -0.160302 0 0.121065 -0.0771083 -0.000804299 326.546 0.0114921 
83 0.170181 -0.0914209 -0.14354 0 0.10457 -0.0666008 -0.00339596 271.892 0.00752127 
87 0.184105 -0.0989028 -0.155283 0 0.120061 -0.0764693 0.00620027 313.892 0.0113836 
91 0.17552 -0.0942913 -0.148042 0 0.1034 -0.0658574 -0.00150775 280.183 0.004591 
95 0.179278 -0.0963091 -0.151212 0 0.101923 -0.0649162 0.0027825 271.315 0.00263895 
99 0.185441 -0.0996197 -0.15641 0 0.0995429 -0.0634002 0.000526303 270.624 -3.3515e-05 
103 0.174278 -0.093623 -0.146995 0 0.0978103 -0.0622967 0.00396333 299.975 0.00168378 
107 0.186389 -0.100132 -0.157209 0 0.105738 -0.0673484 0.000373463 309.13 0.00206396 
111 0.18171 -0.0976183 -0.153262 0 0.0904503 -0.0576112 -0.00751374 269.732 -0.00239532 
115 0.182641 -0.0981161 -0.154048 0 0.0949913 -0.0605016 0.000504719 275.97 -0.000938056 
119 0.0761877 -0.0761877 0 0 0 0.00201121 0.00083438 90.8018 -0.0190476 
123 0.0885404 -0.0885404 0 0 0 0.00509506 0.000164384 83.8643 -0.0164234 
127 0.0993659 -0.0993659 0 0 0 0.00770347 -0.00658741 107.069 -0.0120205 
131 0.102107 -0.102107 0 0 -3.23847e-17 0.00235505 0.00336922 106.212 -0.00576433 
4 32.2506 32.2499 0.210993 0 -0.0010421 0.159283 0.00114809 17709.1 1.74955 
8 32.1559 32.1385 -1.05964 0 0.0148952 0.451768 0.00707663 18603.9 3.73827 
12 31.8473 31.7637 -2.30601 0 0.0480547 0.661921 -0.00781892 18440.3 5.66869 
16 31.5311 31.3336 -3.524 0 0.0976768 0.868491 -0.00621877 18504.3 7.54189 
20 31.1685 30.8115 -4.7037 0 0.166381 1.08987 0.0110707 18372.4 9.33762 
24 30.6528 30.0953 -5.81944 0 0.255805 1.3229 -0.0508027 18530.4 11.0034 
28 29.9805 29.1875 -6.84979 0 0.359842 1.53332 -0.0270692 18376 12.504 
32 29.2529 28.1928 -7.80371 0 0.493999 1.78469 0.0166606 18640.6 13.8633 
36 28.2503 26.9076 -8.60594 0 0.638803 1.9973 -0.00502851 18296 14.9493 
40 27.0842 25.4509 -9.26321 0 0.819587 2.25184 -0.0175516 17940.3 15.7987 
44 25.6675 23.7538 -9.72506 0 1.01722 2.4846 -0.0295414 17911 16.3299 
48 22.8651 20.8019 -9.49183 0 1.40062 3.06953 0.00705412 17995.9 15.9003 
52 10.0686 6.37627 -7.79236 0 3.01627 2.46813 5.49689e-05 11981.1 7.03416 
56 1.37609 -0.121513 -1.37071 0 1.02497 -0.0908629 -0.00945853 2252.77 0.691865 
60 0.234683 -0.126074 -0.197942 0 0.169501 -0.107959 0.00644177 404.91 0.0333239 
64 0.222804 -0.119696 -0.187922 0 0.16161 -0.102937 -0.000133207 377.291 0.0307383 
68 0.201671 -0.108342 -0.170098 0 0.148771 -0.0947583 0.000686039 344.096 0.0282762 
72 0.183445 -0.098548 -0.154727 0 0.124687 -0.0794154 -0.00159145 320.595 0.0173936 
76 0.190797 -0.102498 -0.160927 0 0.128147 -0.0816195 0.00194932 325.509 0.0161959 
80 0.17731 -0.0952508 -0.149553 0 0.106553 -0.067864 0.00288507 287.761 0.00675286 
84 0.167425 -0.089942 -0.141214 0 0.0977529 -0.0622608 0.00161907 239.087 0.00440141 
88 0.181692 -0.0976069 -0.153248 0 0.112995 -0.0719688 0.0049617 303.863 0.00814825 
92 0.187258 -0.100595 -0.157944 0 0.110026 -0.0700757 0.00282692 294.585 0.00467382 
96 0.175156 -0.0940944 -0.147735 0 0.10634 -0.0677291 -0.0059002 277.988 0.00565216 
100 0.172149 -0.0924818 -0.145198 0 0.0932648 -0.0594037 0.00852906 262.189 0.000334834 
104 0.18837 -0.101196 -0.158879 0 0.0966669 -0.0615708 -0.00277478 286.865 -0.00178283 
108 0.205788 -0.11055 -0.173572 0 0.109341 -0.0696407 0.00155235 320.66 -0.000435018 
112 0.184157 -0.0989303 -0.155328 0 0.104651 -0.0666534 -0.00211626 290.498 0.00186296 
116 0.17091 -0.0918141 -0.144154 0 0.08968 -0.0571189 -0.00481293 273.433 -0.000622528 
120 0.0827344 -0.0827344 0 0 0 0.00341737 0.00160187 88.6126 -0.0193499 
124 0.082814 -0.082814 0 0 0 0.00636583 -0.00142974 82.3941 -0.0140255 
128 0.108553 -0.108553 0 0 0 0.0112303 -0.00665258 114.024 -0.011381 
132 0.0968193 -0.0968193 0 0 0 0.00345586 2.74087e-05 78.9879 -0.00390415 
