ITEM: TIMESTEP
16000
ITEM: NUMBER OF SURFS
134
ITEM: BOX BOUNDS oo ao pp
-10 10
0 10
-0.5 0.5
ITEM: SURFS id f_avg_pressure[1] f_avg_pressure[2] f_avg_pressure[3] f_avg_pressure[4] f_avg_shear[1] f_avg_shear[2] f_avg_shear[3] f_avg_heat_flux[*] f_avg_fdrag[*] 
1 32.3597 32.3385 1.17058 0 0.00117663 -0.0325058 -0.015213 16605.5 0.250558 
5 32.1505 32.1503 -0.106787 0 0.000636505 0.191632 -0.00363498 17897.5 2.24275 
9 32.0676 32.0382 -1.37375 0 0.0210577 0.491103 0.00104996 18881.6 4.22406 
13 31.7997 31.6919 -2.61622 0 0.0581561 0.704482 0.0197914 18287 6.14854 
17 31.5535 31.3195 -3.83584 0 0.116723 0.953042 0.00925269 18381 8.02719 
21 30.9861 30.5835 -4.97878 0 0.18809 1.15539 0.0390564 18663.2 9.74681 
25 30.6142 29.9985 -6.10901 0 0.29574 1.45224 -0.00907939 18731.9 11.4437 
29 29.8369 28.9788 -7.10428 0 0.386679 1.57729 -0.0443761 18719.4 12.8698 
33 28.9925 27.864 -8.01013 0 0.516687 1.79734 -0.00154408 18473.9 14.1393 
37 27.953 26.5389 -8.77804 0 0.698618 2.11216 -0.00143788 18373.4 15.1835 
41 26.7414 25.0372 -9.39386 0 0.843024 2.24689 0.0142188 18024.7 15.9405 
45 25.0798 23.1151 -9.73074 0 1.04817 2.48991 -0.0242657 17709.3 16.2751 
49 21.7893 19.7327 -9.24086 0 1.61174 3.44167 0.0229319 18365 15.5862 
53 6.58291 3.11105 -5.80138 0 2.94066 1.57696 0.00755006 9258.72 4.58162 
57 0.745751 -0.20748 -0.716308 0 0.577417 -0.16725 0.00914291 1235.12 0.282307 
61 0.244865 -0.131544 -0.206531 0 0.183019 -0.116568 -0.00137413 407.255 0.0390615 
65 0.221688 -0.119093 -0.186983 0 0.153974 -0.0980686 -0.00675766 371.951 0.0252843 
69 0.207215 -0.111316 -0.174777 0 0.133467 -0.0850057 -0.00112812 341.786 0.0153047 
73 0.182126 -0.0978397 -0.153614 0 0.129466 -0.0824592 -0.00339843 302.511 0.020776 
77 0.187615 -0.100787 -0.158245 0 0.125504 -0.0799341 0.00157877 346.64 0.0153979 
81 0.184436 -0.0990808 -0.155563 0 0.119938 -0.0763909 -6.86825e-05 300.136 0.0122845 
85 0.169555 -0.0910868 -0.143011 0 0.111813 -0.0712159 -0.00301205 274.867 0.0115029 
89 0.16304 -0.0875872 -0.137516 0 0.105739 -0.0673478 -0.00847982 273.434 0.00945785 
93 0.152292 -0.0818146 -0.128449 0 0.102298 -0.0651575 -0.00727668 272.476 0.00997639 
97 0.186941 -0.100428 -0.157674 0 0.106391 -0.0677643 0.00643943 272.234 0.00270175 
101 0.1514 -0.0813327 -0.127698 0 0.0826943 -0.0526691 -0.0080442 246.902 0.000570657 
105 0.214417 -0.115186 -0.18085 0 0.132048 -0.0841032 0.00557847 364.877 0.0064943 
109 0.168504 -0.0905212 -0.142125 0 0.0854792 -0.0544427 -0.009438 264.027 -0.00177054 
113 0.201972 -0.108501 -0.170353 0 0.111609 -0.0710856 0.00535086 325.801 0.000985863 
117 0.061434 -0.061434 0 0 0 0.00597621 -0.0052065 82.7812 -0.0173409 
121 0.0788052 -0.0788052 0 0 0 0.0108888 0.00247537 94.3785 -0.0171599 
125 0.0957118 -0.0957118 0 0 0 0.00367486 0.00843909 110.29 -0.0146661 
129 0.099255 -0.099255 0 0 0 0.0107636 -9.0086e-05 84.8259 -0.00880521 
133 0.0834391 -0.0834391 0 0 0 0.00496071 0.0106878 77.321 -0.00201876 
2 32.2398 32.2286 0.847648 0 -0.000720745 0.0274036 0.00610642 17013.5 0.749152 
6 32.1831 32.1803 -0.424925 0 0.00390002 0.295355 -0.0244062 18078 2.74408 
10 32.0117 31.9672 -1.68698 0 0.0295538 0.560027 -0.0191591 18533.5 4.71138 
14 31.7012 31.5664 -2.91953 0 0.0644323 0.696652 0.0163762 18435.3 6.61401 
18 31.3736 31.1017 -4.12147 0 0.13484 1.01754 0.0377584 18692.5 8.45664 
22 30.8499 30.3985 -5.25811 0 0.220497 1.27475 -0.0289624 18535.3 10.1667 
26 30.2448 29.5754 -6.32759 0 0.306916 1.43454 -0.00598639 18571 11.7414 
30 29.4966 28.5776 -7.30564 0 0.426417 1.66802 0.00500739 18369.9 13.1476 
34 28.8107 27.6094 -8.23266 0 0.582081 1.95209 -0.0383454 18417.9 14.4641 
38 27.6874 26.1996 -8.95379 0 0.718335 2.10192 0.0144729 18315.6 15.4011 
42 26.3631 24.5903 -9.50427 0 0.893934 2.31287 -0.0035035 17769.8 16.0657 
46 24.4904 22.4769 -9.72471 0 1.15125 2.6609 0.0219375 18043 16.2519 
50 19.0445 16.732 -9.0958 0 2.04297 3.7581 -0.0562753 17767.9 13.6371 
54 4.25043 1.25075 -4.06224 0 2.23936 0.689492 0.00992129 6014.77 2.66202 
58 0.386897 -0.177115 -0.343976 0 0.312963 -0.161146 -0.00695891 662.086 0.102927 
62 0.221298 -0.118883 -0.186654 0 0.163555 -0.104171 0.00783377 401.123 0.03352 
66 0.214096 -0.115011 -0.180581 0 0.141737 -0.0902719 -0.0185056 371.727 0.0191459 
70 0.227745 -0.122346 -0.192091 0 0.153375 -0.097687 0.00237489 385.825 0.0211738 
74 0.181836 -0.0976836 -0.153369 0 0.113021 -0.0719849 -0.00817993 280.537 0.00994497 
78 0.191153 -0.102692 -0.161226 0 0.122533 -0.0780462 -0.00369772 311.839 0.0121915 
82 0.193206 -0.103794 -0.162957 0 0.129124 -0.0822446 0.000818055 320.452 0.0147036 
86 0.177414 -0.0953091 -0.14964 0 0.10506 -0.0669155 0.00673603 270.189 0.0053293 
90 0.190717 -0.102455 -0.16086 0 0.117888 -0.0750848 0.000924162 345.367 0.00790984 
94 0.194964 -0.104736 -0.164443 0 0.124481 -0.0792839 -0.00883664 327.766 0.00944941 
98 0.171282 -0.0920137 -0.144468 0 0.0935091 -0.0595572 0.00498008 260.421 0.000664802 
102 0.189929 -0.102031 -0.160196 0 0.109608 -0.069811 -0.000555568 353.297 0.00311138 
106 0.179132 -0.0962305 -0.151089 0 0.10768 -0.0685825 0.0158563 283.368 0.00431208 
110 0.200085 -0.107487 -0.168762 0 0.111108 -0.070766 -0.00772938 339.632 0.00124096 
114 0.182156 -0.0978562 -0.153639 0 0.08933 -0.0568962 0.00491434 283.207 -0.0026319 
118 0.0788089 -0.0788089 0 0 0 0.0144948 0.00180005 86.8042 -0.0209741 
122 0.0839148 -0.0839148 0 0 0 0.00999153 0.00038691 97.958 -0.0169189 
126 0.0905783 -0.0905783 0 0 0 -0.00131294 0.0057023 89.4686 -0.0124185 
130 0.100895 -0.100895 0 0 0 0.00704655 0.00144578 92.2881 -0.00732327 
134 0.0948659 -0.0948659 0 0 0 0.0173082 -0.00234318 83.6095 -0.000765076 
3 32.3105 32.3061 0.530609 0 -0.00166339 0.101275 -0.0164312 17512.7 1.25171 
7 32.2044 32.1958 -0.743575 0 0.00807972 0.349841 -0.025649 18009.2 3.245 
11 31.9188 31.8563 -1.99698 0 0.036705 0.585527 -0.01082 18256.8 5.18979 
15 31.7356 31.5703 -3.2351 0 0.0844404 0.824028 -0.0253675 18653.4 7.10753 
19 31.2892 30.9759 -4.41667 0 0.143528 1.00662 0.0294613 18445.1 8.90297 
23 30.7097 30.2073 -5.53219 0 0.236377 1.29068 -0.00928917 18641.2 10.5731 
27 30.243 29.5097 -6.61951 0 0.335663 1.49638 -0.00788036 18679.4 12.179 
31 29.4298 28.4394 -7.57062 0 0.452194 1.69869 -0.00362305 18346.4 13.5301 
35 28.5153 27.2444 -8.41797 0 0.597756 1.93461 -0.0118888 18444.6 14.6982 
39 27.4133 25.8514 -9.12122 0 0.75456 2.13858 0.0136537 18098.1 15.612 
43 25.956 24.1169 -9.59626 0 0.951574 2.39146 0.00511986 18084.2 16.1655 
47 23.8439 21.789 -9.68374 0 1.26528 2.84695 0.0503198 18048.6 16.1842 
51 14.2599 10.9846 -9.09297 0 2.82119 3.4081 0.0774349 15291 10.1958 
55 2.38535 0.250363 -2.37218 0 1.47971 0.15617 0.00583879 3607.82 1.32473 
59 0.287419 -0.154404 -0.242423 0 0.209838 -0.133649 -0.00195934 444.183 0.0430076 
63 0.214188 -0.115062 -0.180658 0 0.143643 -0.0914868 -0.00320622 330.536 0.0212034 
67 0.197529 -0.106114 -0.166606 0 0.139944 -0.0891327 -0.00560039 329.353 0.0239472 
71 0.215471 -0.115755 -0.181738 0 0.141296 -0.0899961 0.00441743 364.2 0.017213 
75 0.207407 -0.111421 -0.174936 0 0.127047 -0.0809194 0.00523904 348.287 0.00999983 
79 0.203895 -0.109534 -0.171975 0 0.126388 -0.0804989 0.00657783 347.788 0.010213 
83 0.171303 -0.0920236 -0.144486 0 0.108115 -0.0688586 -0.000473658 278.064 0.00920421 
87 0.18384 -0.0987605 -0.15506 0 0.116662 -0.0743039 0.00438254 300.725 0.00963103 
91 0.185105 -0.0994402 -0.156127 0 0.110393 -0.0703113 0.0056233 297.216 0.00552044 
95 0.17614 -0.0946232 -0.148565 0 0.0988374 -0.0629509 0.00633707 258.144 0.00198094 
99 0.183617 -0.0986403 -0.154872 0 0.0918173 -0.0584797 0.00969403 259.524 -0.0029754 
103 0.185387 -0.0995911 -0.156365 0 0.108252 -0.0689473 -0.000564328 340.924 0.00348273 
107 0.192397 -0.103359 -0.162276 0 0.113196 -0.0720986 0.00764023 333.233 0.00362142 
111 0.177818 -0.0955274 -0.149979 0 0.0939496 -0.05984 -0.00795372 276.888 -0.000527257 
115 0.166233 -0.0893019 -0.140209 0 0.0911511 -0.0580558 -0.0034817 248.788 0.000555131 
119 0.0741683 -0.0741683 0 0 0 0.00448735 -0.000606312 83.5512 -0.0185428 
123 0.0746962 -0.0746962 0 0 0 0.00483748 0.00320766 71.025 -0.0138554 
127 0.10453 -0.10453 0 0 0 0.0119434 -0.00868419 110.062 -0.0126452 
131 0.0983806 -0.0983806 0 0 -3.12472e-17 0.00031594 -0.00248225 95.3476 -0.00555396 
4 32.2307 32.23 0.210863 0 -0.000949485 0.145127 0.00767662 17664.1 1.74848 
8 32.1542 32.1368 -1.05958 0 0.0146033 0.442914 0.0343081 18659.7 3.73804 
12 31.7751 31.6917 -2.30078 0 0.0449885 0.619687 -0.018021 18293.3 5.65531 
16 31.5139 31.3165 -3.52208 0 0.0963163 0.856394 0.0133799 18468.2 7.53747 
20 31.1511 30.7943 -4.70107 0 0.166863 1.09303 -0.000972944 18438.8 9.33256 
24 30.6614 30.1037 -5.82107 0 0.253019 1.30849 -0.0539995 18564.2 11.0054 
28 29.9937 29.2003 -6.85279 0 0.366711 1.56259 -0.031031 18548.9 12.5123 
32 29.3129 28.2506 -7.81972 0 0.493406 1.78254 0.00679152 18731.4 13.891 
36 28.3082 26.9627 -8.62356 0 0.627108 1.96074 -0.0176064 18402.1 14.9728 
40 27.0629 25.4309 -9.25592 0 0.808175 2.22048 0.00418827 17941.5 15.7798 
44 25.6826 23.7678 -9.7308 0 1.01089 2.46913 -0.036709 17928 16.335 
48 22.8133 20.7547 -9.47032 0 1.40134 3.07112 0.033363 17941.9 15.8671 
52 10.1063 6.40013 -7.82153 0 3.01776 2.46935 0.00409828 12088.2 7.05315 
56 1.35894 -0.119998 -1.35363 0 1.0336 -0.0916287 0.0288053 2239.3 0.69964 
60 0.23553 -0.126529 -0.198657 0 0.178227 -0.113517 0.00455667 439.954 0.0396705 
64 0.228193 -0.122591 -0.192467 0 0.166275 -0.105908 -0.00191905 390.597 0.0320367 
68 0.195395 -0.104971 -0.164805 0 0.141973 -0.0904283 0.00394193 328.774 0.0258796 
72 0.183954 -0.0988213 -0.155156 0 0.128028 -0.0815428 -1.54768e-05 342.357 0.0194343 
76 0.202609 -0.108843 -0.17089 0 0.134395 -0.0855988 0.00366743 321.614 0.0161342 
80 0.180131 -0.0967663 -0.151933 0 0.110229 -0.0702054 -0.00496789 291.223 0.00804383 
84 0.158684 -0.0852464 -0.133842 0 0.0846049 -0.0538865 -4.01014e-05 223.639 -0.000361503 
88 0.182653 -0.0981227 -0.154058 0 0.115115 -0.0733188 0.0103601 296.164 0.00899747 
92 0.198884 -0.10684 -0.16775 0 0.121352 -0.077289 0.00338534 323.02 0.00719115 
96 0.179333 -0.0963385 -0.151259 0 0.107674 -0.0685786 0.00253716 280.603 0.00523198 
100 0.181 -0.0972366 -0.152663 0 0.0946512 -0.0602867 0.000306967 252.001 -0.00110549 
104 0.18518 -0.0994826 -0.156189 0 0.0922531 -0.0587595 -0.00692399 276.605 -0.00284569 
108 0.195734 -0.105149 -0.165092 0 0.0952306 -0.0606537 0.000785395 286.392 -0.00356727 
112 0.184882 -0.0993195 -0.155939 0 0.107762 -0.0686351 0.00546636 289.274 0.00274946 
116 0.164544 -0.0883945 -0.138785 0 0.0854531 -0.0544267 0.00488391 253.501 -0.000858003 
120 0.0789133 -0.0789133 0 0 0 0.00359652 0.00137399 70.9529 -0.0184562 
124 0.0770365 -0.0770365 0 0 0 0.00526797 -0.00109301 92.8984 -0.013047 
128 0.109418 -0.109418 0 0 0 0.00167696 -0.009752 126.761 -0.0114717 
132 0.100627 -0.100627 0 0 0 0.00473621 0.00136427 83.6338 -0.00405771 
