ITEM: TIMESTEP
22000
ITEM: NUMBER OF SURFS
134
ITEM: BOX BOUNDS oo ao pp
-10 10
0 10
-0.5 0.5
ITEM: SURFS id f_avg_pressure[1] f_avg_pressure[2] f_avg_pressure[3] f_avg_pressure[4] f_avg_shear[1] f_avg_shear[2] f_avg_shear[3] f_avg_heat_flux[*] f_avg_fdrag[*] 
1 32.3973 32.3761 1.17194 0 0.00147645 -0.0407885 -0.0070675 16752.6 0.250851 
5 32.2455 32.2453 -0.107102 0 0.000682309 0.205423 -0.00644516 17916.7 2.24938 
9 32.112 32.0825 -1.37565 0 0.0219473 0.51185 0.0125818 18821.5 4.23001 
13 31.7703 31.6626 -2.6138 0 0.0566647 0.686415 -0.00418374 18098 6.14257 
17 31.4421 31.2089 -3.82229 0 0.110673 0.903641 0.0058004 18206.7 7.9974 
21 31.078 30.6742 -4.99355 0 0.193214 1.18687 0.0060533 18575.5 9.77717 
25 30.4763 29.8634 -6.0815 0 0.286246 1.40562 0.0048883 18523.2 11.3891 
29 29.8126 28.9552 -7.09848 0 0.398338 1.62485 -0.0222487 18537.4 12.8645 
33 28.9501 27.8232 -7.99841 0 0.519775 1.80809 0.00688521 18276.8 14.1205 
37 28.0074 26.5906 -8.79513 0 0.689149 2.08353 0.00398104 18341.2 15.2071 
41 26.7494 25.0447 -9.39667 0 0.842512 2.24552 0.0324332 17982 15.9448 
45 25.1303 23.1617 -9.75033 0 1.05001 2.49427 -0.0117408 17742.9 16.3077 
49 21.7234 19.673 -9.21291 0 1.61898 3.45714 0.00186454 18348.8 15.5479 
53 6.59752 3.11795 -5.81426 0 2.93359 1.57316 -0.015129 9327.09 4.5815 
57 0.738006 -0.205325 -0.708868 0 0.573605 -0.166146 0.00688893 1227.03 0.281042 
61 0.252431 -0.135608 -0.212912 0 0.182684 -0.116355 -0.000174149 423.1 0.0357235 
65 0.218989 -0.117643 -0.184706 0 0.154549 -0.0984353 0.00111263 370.132 0.0267526 
69 0.207389 -0.111409 -0.174923 0 0.135239 -0.086134 0.0032317 335.659 0.0164642 
73 0.191966 -0.103126 -0.161914 0 0.129389 -0.0824103 -0.00207256 315.967 0.0172529 
77 0.185271 -0.0995276 -0.156268 0 0.124409 -0.0792362 0.00128941 316.543 0.0154998 
81 0.1782 -0.0957305 -0.150303 0 0.113577 -0.0723392 0.00185663 289.154 0.0105111 
85 0.183125 -0.0983763 -0.154456 0 0.113049 -0.0720029 -0.00747516 294.959 0.00814304 
89 0.177214 -0.0952013 -0.14947 0 0.1095 -0.0697431 -0.00338932 291.45 0.00745004 
93 0.1644 -0.088319 -0.138661 0 0.102159 -0.0650693 -0.0050199 266.297 0.00674093 
97 0.187544 -0.100752 -0.158183 0 0.102631 -0.0653694 0.00657886 285.71 0.000851374 
101 0.168954 -0.0907633 -0.142505 0 0.0936402 -0.0596407 -0.00309691 269.33 0.00120572 
105 0.183852 -0.0987661 -0.15507 0 0.108421 -0.0690549 -0.00152471 312.538 0.00371854 
109 0.182522 -0.0980516 -0.153948 0 0.0939594 -0.0598439 -0.00381292 276.882 -0.00143698 
113 0.198288 -0.106522 -0.167246 0 0.104109 -0.0663086 0.00701165 307.492 -0.000765303 
117 0.0638321 -0.0638321 0 0 0 0.00468407 -0.000240639 76.5238 -0.0180178 
121 0.0751969 -0.0751969 0 0 0 0.0101078 0.000679793 88.8378 -0.0163742 
125 0.0946047 -0.0946047 0 0 0 0.00653855 0.00449621 97.3044 -0.0144964 
129 0.0969209 -0.0969209 0 0 0 0.00630464 -0.00207295 90.6127 -0.00859815 
133 0.100874 -0.100874 0 0 0 0.00844285 0.00277309 97.7701 -0.00244059 
2 32.3154 32.3042 0.849635 0 -0.00116002 0.0441054 -0.0185177 17165.3 0.750898 
6 32.225 32.2222 -0.425479 0 0.00405543 0.307125 -0.017868 18041.4 2.74767 
10 32.0392 31.9947 -1.68842 0 0.0287776 0.545318 0.00207005 18378 4.7153 
14 31.7381 31.6032 -2.92293 0 0.0641612 0.693721 0.0109408 18462.8 6.62165 
18 31.4468 31.1743 -4.13109 0 0.132405 0.999163 0.0159742 18756.1 8.47563 
22 30.8907 30.4387 -5.26505 0 0.211978 1.2255 -0.0113247 18453.7 10.1772 
26 30.2996 29.6291 -6.33906 0 0.307875 1.43902 -0.00646819 18475.9 11.7629 
30 29.5371 28.6168 -7.31566 0 0.419232 1.63992 -0.00481554 18301.7 13.1621 
34 28.81 27.6088 -8.23249 0 0.574104 1.92534 -0.0307857 18363.1 14.4597 
38 27.6866 26.1989 -8.95353 0 0.717389 2.09915 0.0193239 18177 15.4001 
42 26.3934 24.6186 -9.5152 0 0.877006 2.26907 -0.00776668 17743.2 16.0729 
46 24.493 22.4793 -9.72575 0 1.15845 2.67754 -0.00147432 17985.6 16.2585 
50 18.9165 16.6195 -9.03467 0 2.00979 3.69706 -0.0255802 17638.2 13.5313 
54 4.27926 1.25924 -4.08979 0 2.27193 0.699521 0.00571041 6071.43 2.69333 
58 0.373775 -0.171108 -0.33231 0 0.298324 -0.153608 -0.00106255 649.532 0.096387 
62 0.233113 -0.12523 -0.196619 0 0.169953 -0.108246 0.00503142 412.089 0.0335583 
66 0.211083 -0.113393 -0.178039 0 0.147302 -0.093816 -0.00870659 363.159 0.024292 
70 0.21152 -0.11363 -0.178406 0 0.143569 -0.0914414 0.00466155 351.59 0.0204301 
74 0.187212 -0.100572 -0.157904 0 0.122744 -0.0781777 -0.000925746 311.026 0.0143769 
78 0.191883 -0.103084 -0.161842 0 0.126433 -0.0805307 0.000374879 313.226 0.0143473 
82 0.192688 -0.103516 -0.162521 0 0.121513 -0.0773968 0.0011625 315.321 0.0104468 
86 0.177395 -0.0952989 -0.149624 0 0.107937 -0.0687477 0.00324508 280.949 0.00690698 
90 0.18415 -0.0989269 -0.155321 0 0.111336 -0.0709121 0.00183234 304.087 0.00636021 
94 0.179866 -0.0966249 -0.151708 0 0.111865 -0.071248 -0.00277336 299.328 0.00729301 
98 0.174069 -0.0935107 -0.146819 0 0.0930893 -0.0592899 0.00373385 264.048 -0.000187348 
102 0.172546 -0.0926925 -0.145534 0 0.0992099 -0.063188 0.00103769 285.267 0.0026761 
106 0.178434 -0.0958555 -0.1505 0 0.0941714 -0.059979 0.00349446 272.217 -0.000634302 
110 0.187114 -0.100518 -0.157822 0 0.100017 -0.063702 -0.00359476 292.132 -0.000171753 
114 0.181399 -0.0974493 -0.153001 0 0.0930352 -0.0592561 -0.00149766 283.084 -0.00136256 
118 0.0715254 -0.0715254 0 0 0 0.00729122 0.00359931 73.6072 -0.0190357 
122 0.080376 -0.080376 0 0 0 0.00474795 -0.00401895 92.1702 -0.0162055 
126 0.0894219 -0.0894219 0 0 0 0.00806823 0.00408243 93.9441 -0.0122599 
130 0.100454 -0.100454 0 0 0 0.00177798 0.0035936 90.7515 -0.00729125 
134 0.104579 -0.104579 0 0 0 0.0027921 0.00436973 76.9278 -0.000843409 
3 32.306 32.3016 0.530535 0 -0.00196439 0.119602 -0.0242987 17532.6 1.25152 
7 32.1827 32.1741 -0.743075 0 0.00824802 0.357128 -0.0178228 17897 3.24284 
11 31.9451 31.8825 -1.99862 0 0.035556 0.567197 -0.00171179 18187.3 5.19387 
15 31.6951 31.53 -3.23096 0 0.0852217 0.831653 -0.00864468 18612.8 7.09864 
19 31.3129 30.9994 -4.42001 0 0.144502 1.01345 0.0126654 18421.8 8.90996 
23 30.7632 30.26 -5.54184 0 0.232642 1.27029 -0.0198609 18620.5 10.5901 
27 30.1445 29.4135 -6.59795 0 0.334858 1.49279 0.00478388 18442 12.1395 
31 29.4145 28.4246 -7.56668 0 0.456034 1.71311 -0.00574847 18301.6 13.525 
35 28.5679 27.2947 -8.4335 0 0.598946 1.93847 -0.0213336 18458.6 14.7254 
39 27.4261 25.8634 -9.12547 0 0.749963 2.12555 0.0122344 18012 15.6164 
43 25.9619 24.1224 -9.59843 0 0.94737 2.38089 0.00230417 18017.5 16.1663 
47 23.8368 21.7824 -9.68083 0 1.26903 2.85539 0.0313317 18023.7 16.1823 
51 14.2924 11.0097 -9.11372 0 2.8294 3.41801 0.0333094 15429 10.2204 
55 2.36694 0.24843 -2.35387 0 1.48974 0.157229 0.0024782 3634.84 1.33093 
59 0.267708 -0.143815 -0.225798 0 0.190268 -0.121185 -0.00164911 430.51 0.03604 
63 0.225547 -0.121164 -0.190239 0 0.156478 -0.0996613 0.000599953 388.32 0.0261983 
67 0.209942 -0.112783 -0.177076 0 0.14575 -0.0928307 -0.00381426 356.559 0.0233369 
71 0.202896 -0.108999 -0.171131 0 0.134889 -0.0859151 -0.00104831 355.975 0.0174479 
75 0.196456 -0.105538 -0.1657 0 0.129505 -0.082485 0.00557892 328.19 0.0153376 
79 0.189292 -0.101689 -0.159659 0 0.122347 -0.0779251 -0.00112087 318.492 0.0125177 
83 0.176644 -0.0948926 -0.148991 0 0.106673 -0.0679399 3.83135e-05 271.742 0.00673805 
87 0.183575 -0.098618 -0.154836 0 0.115601 -0.0736284 0.00911812 305.974 0.0091371 
91 0.170522 -0.0916059 -0.143826 0 0.100455 -0.0639818 0.000626658 271.29 0.00446029 
95 0.176645 -0.0948945 -0.148991 0 0.100083 -0.0637445 0.00328804 269.17 0.00243917 
99 0.182893 -0.0982512 -0.154261 0 0.100204 -0.0638214 0.000851215 276.818 0.00085171 
103 0.17461 -0.0938015 -0.147275 0 0.0997261 -0.0635169 0.00219105 290.984 0.00238235 
107 0.19089 -0.10255 -0.161005 0 0.104923 -0.0668294 -0.00139647 307.953 0.000873856 
111 0.18417 -0.0989397 -0.155337 0 0.0917771 -0.0584563 -0.00389717 276.653 -0.00239352 
115 0.178778 -0.0960411 -0.15079 0 0.0883777 -0.0562894 0.00247063 270.358 -0.00230048 
119 0.0737661 -0.0737661 0 0 0 0.00054645 0.000688794 87.3705 -0.0184422 
123 0.0845157 -0.0845157 0 0 0 0.00443619 -0.000761839 83.5905 -0.0156769 
127 0.101524 -0.101524 0 0 0 0.00257839 -0.00400416 104.72 -0.0122816 
131 0.098358 -0.098358 0 0 -3.11089e-17 0.00324325 -0.00273809 101.28 -0.00555268 
4 32.2683 32.2676 0.211108 0 -0.00109615 0.167545 0.00864552 17763.8 1.75051 
8 32.1651 32.1477 -1.05994 0 0.0147022 0.445913 0.00711926 18597.8 3.73932 
12 31.8755 31.7918 -2.30805 0 0.0467 0.643262 -0.0181396 18377.1 5.67346 
16 31.5841 31.3863 -3.52993 0 0.0968569 0.861201 -0.0192033 18551.2 7.55433 
20 31.184 30.8268 -4.70604 0 0.166991 1.09387 0.0132482 18382.5 9.34241 
24 30.623 30.0661 -5.8138 0 0.255123 1.31937 -0.0152671 18489.5 10.9926 
28 29.9414 29.1494 -6.84085 0 0.360074 1.5343 -0.0174401 18315.3 12.488 
32 29.2135 28.1548 -7.7932 0 0.493264 1.78203 0.00765042 18577.4 13.8446 
36 28.2739 26.93 -8.61311 0 0.636188 1.98913 -0.0102461 18312.6 14.96 
40 27.0892 25.4556 -9.26491 0 0.810943 2.22809 -0.0194596 17910.5 15.7963 
44 25.6515 23.739 -9.71903 0 1.01471 2.47845 -0.0116112 17867.2 16.3185 
48 22.8397 20.7788 -9.4813 0 1.39222 3.05112 0.0147331 17967.4 15.8778 
52 10.0353 6.35513 -7.76653 0 2.9914 2.44778 -0.0158799 11986.8 6.9997 
56 1.39098 -0.122828 -1.38555 0 1.03314 -0.0915877 -0.00950012 2292.04 0.697119 
60 0.243002 -0.130543 -0.204959 0 0.17128 -0.109092 0.00306403 406.792 0.0312596 
64 0.225176 -0.12097 -0.189922 0 0.164988 -0.105089 -0.00154114 382.915 0.0322817 
68 0.207785 -0.111627 -0.175255 0 0.151452 -0.0964656 0.00234649 360.481 0.0278536 
72 0.186325 -0.100095 -0.157156 0 0.124642 -0.0793864 -0.00235078 316.011 0.0163341 
76 0.187753 -0.100863 -0.15836 0 0.126041 -0.0802782 0.00508733 313.732 0.0158988 
80 0.1813 -0.097394 -0.152918 0 0.108751 -0.0692636 0.00463729 292.094 0.00678529 
84 0.169896 -0.0912697 -0.143299 0 0.103998 -0.0662382 0.000291482 264.331 0.0071721 
88 0.180794 -0.0971244 -0.152491 0 0.110992 -0.0706929 0.00505575 298.853 0.00734301 
92 0.183553 -0.0986045 -0.154819 0 0.110582 -0.0704298 0.00213119 292.095 0.00593548 
96 0.180433 -0.0969295 -0.152187 0 0.105937 -0.0674724 -0.00341633 279.114 0.00415751 
100 0.176897 -0.0950324 -0.149203 0 0.0991589 -0.0631578 0.00740189 270.614 0.00176448 
104 0.18855 -0.101293 -0.159031 0 0.0978251 -0.0623085 -0.00349905 297.251 -0.00136487 
108 0.20004 -0.107463 -0.168724 0 0.106923 -0.0681005 -0.00102718 317.822 -0.0001942 
112 0.188424 -0.101223 -0.158927 0 0.101953 -0.0649353 -0.000421343 299.051 0.000237879 
116 0.168125 -0.0903181 -0.141805 0 0.0856893 -0.0545771 -0.00422683 254.993 -0.00135021 
120 0.0766474 -0.0766474 0 0 0 0.0063552 -0.000177416 83.7014 -0.0179262 
124 0.0833257 -0.0833257 0 0 0 0.0070897 -0.00186595 92.1027 -0.0141121 
128 0.112204 -0.112204 0 0 0 0.0107368 -0.00419515 114.287 -0.0117638 
132 0.102171 -0.102171 0 0 0 0.0041078 0.000617303 86.4463 -0.00411995 
