ITEM: TIMESTEP
18000
ITEM: NUMBER OF SURFS
134
ITEM: BOX BOUNDS oo ao pp
-10 10
0 10
-0.5 0.5
ITEM: SURFS id f_avg_pressure[1] f_avg_pressure[2] f_avg_pressure[3] f_avg_pressure[4] f_avg_shear[1] f_avg_shear[2] f_avg_shear[3] f_avg_heat_flux[*] f_avg_fdrag[*] 
1 32.3436 32.3225 1.16999 0 0.00142773 -0.0394427 0.00665395 16725 0.250435 
5 32.1873 32.1871 -0.106909 0 0.000613002 0.184556 0.00350841 17898.4 2.24531 
9 32.0365 32.0071 -1.37241 0 0.0213252 0.497342 0.00631359 18760.3 4.21999 
13 31.768 31.6603 -2.61361 0 0.0572625 0.693657 -0.00878191 18213.1 6.14224 
17 31.5118 31.2781 -3.83076 0 0.112069 0.915042 -0.00818112 18309.1 8.01541 
21 30.9884 30.5858 -4.97914 0 0.191808 1.17823 0.0185095 18466.1 9.7487 
25 30.5351 29.9209 -6.09322 0 0.291591 1.43187 -0.0168223 18571.4 11.4128 
29 29.8519 28.9934 -7.10785 0 0.39377 1.60621 -0.0338901 18658.1 12.8793 
33 28.9518 27.8249 -7.99889 0 0.519295 1.80642 0.013464 18338.9 14.1211 
37 27.9397 26.5263 -8.77387 0 0.694321 2.09916 0.00579312 18347.1 15.1741 
41 26.7332 25.0294 -9.39095 0 0.84479 2.25159 0.0215984 17954.5 15.9368 
45 25.0849 23.1199 -9.73273 0 1.03974 2.46988 -0.026355 17666.8 16.2727 
49 21.669 19.6237 -9.18983 0 1.59267 3.40096 0.0309826 18208.7 15.4927 
53 6.60735 3.1226 -5.82293 0 2.96107 1.5879 -0.0311381 9348.29 4.60582 
57 0.741404 -0.20627 -0.712132 0 0.577686 -0.167328 0.00578341 1237.7 0.283436 
61 0.243583 -0.130855 -0.20545 0 0.180815 -0.115164 0.00304014 412.997 0.037912 
65 0.219224 -0.117769 -0.184905 0 0.153791 -0.0979525 -0.00804949 374.418 0.0261115 
69 0.208181 -0.111835 -0.175592 0 0.138017 -0.0879035 0.0026886 346.583 0.0180896 
73 0.193949 -0.104191 -0.163586 0 0.134818 -0.0858681 -0.000487684 322.277 0.0201196 
77 0.184601 -0.0991677 -0.155703 0 0.122748 -0.0781785 -0.00213141 328.961 0.0146894 
81 0.178857 -0.0960833 -0.150857 0 0.111359 -0.0709264 0.00502775 292.12 0.00899681 
85 0.174563 -0.093777 -0.147235 0 0.109162 -0.0695272 -0.00631663 274.255 0.00853842 
89 0.169012 -0.0907954 -0.142553 0 0.102836 -0.0654985 -0.00583054 283.104 0.00627338 
93 0.157383 -0.0845495 -0.132743 0 0.0979105 -0.0623632 -0.00829626 264.264 0.00650755 
97 0.181989 -0.0977681 -0.153498 0 0.101608 -0.0647178 0.00807392 273.219 0.00173979 
101 0.159476 -0.0856716 -0.134511 0 0.0861181 -0.0548498 0.000585802 255.83 0.0001871 
105 0.194111 -0.104277 -0.163723 0 0.117583 -0.0748897 0.00159613 330.24 0.0051242 
109 0.173345 -0.0931218 -0.146208 0 0.0931634 -0.0593369 -0.0037101 271.029 1.46003e-05 
113 0.197792 -0.106255 -0.166828 0 0.107504 -0.0684711 0.010518 323.797 0.000396099 
117 0.0649916 -0.0649916 0 0 0 0.00405244 -0.000697714 80.1934 -0.0183451 
121 0.0763753 -0.0763753 0 0 0 0.0142137 -0.000725883 84.4454 -0.0166307 
125 0.0959811 -0.0959811 0 0 0 0.00486472 0.00388075 104.43 -0.0147073 
129 0.100478 -0.100478 0 0 0 0.00621065 0.0020683 97.9988 -0.00891373 
133 0.0913394 -0.0913394 0 0 0 0.00965245 0.000279488 97.4268 -0.00220991 
2 32.2381 32.227 0.847604 0 -0.000728527 0.0276995 0.00795535 17139.2 0.749113 
6 32.1871 32.1842 -0.424977 0 0.00377627 0.285983 -0.0164099 18067.3 2.7444 
10 32.0006 31.9562 -1.68639 0 0.0291003 0.551433 -0.0136327 18398.3 4.70968 
14 31.7196 31.5848 -2.92123 0 0.0653117 0.70616 0.0327347 18478.9 6.61804 
18 31.4097 31.1375 -4.12621 0 0.134119 1.0121 0.0263669 18731.6 8.46612 
22 30.8296 30.3785 -5.25464 0 0.212127 1.22636 -0.011812 18413.9 10.1572 
26 30.2635 29.5938 -6.33151 0 0.30328 1.41754 -0.0154801 18495.2 11.7472 
30 29.5045 28.5853 -7.30759 0 0.423774 1.65769 0.00877584 18330.3 13.1499 
34 28.792 27.5915 -8.22733 0 0.576477 1.9333 -0.0371536 18371.4 14.4521 
38 27.6871 26.1993 -8.95369 0 0.713463 2.08766 0.016446 18210 15.3981 
42 26.3978 24.6227 -9.51678 0 0.88668 2.2941 0.00235195 17806.8 16.0815 
46 24.5157 22.5001 -9.73477 0 1.15433 2.66802 0.00534061 18052.1 16.27 
50 19.0003 16.6931 -9.07468 0 2.02338 3.72206 -0.0281686 17700.3 13.5947 
54 4.21876 1.24143 -4.03197 0 2.24512 0.691267 0.00446604 6004.27 2.65931 
58 0.379963 -0.17394 -0.337811 0 0.301975 -0.155488 -0.000850001 659.285 0.0970068 
62 0.232814 -0.125069 -0.196367 0 0.172082 -0.109602 0.00502596 421.101 0.0352761 
66 0.21055 -0.113106 -0.17759 0 0.144229 -0.0918591 -0.0143822 366.063 0.022296 
70 0.220718 -0.118572 -0.186165 0 0.153033 -0.0974697 0.00695633 367.247 0.0235166 
74 0.183018 -0.0983186 -0.154366 0 0.116826 -0.0744083 -0.00989286 296.714 0.0120004 
78 0.192314 -0.103315 -0.162205 0 0.124535 -0.0793217 0.00060628 309.225 0.0130388 
82 0.194301 -0.104383 -0.163882 0 0.123574 -0.0787092 0.00194216 311.535 0.0111398 
86 0.180321 -0.0968708 -0.152092 0 0.110889 -0.0706276 0.0080176 283.664 0.00766094 
90 0.192441 -0.103381 -0.162314 0 0.116831 -0.074412 0.00327291 336.029 0.00689386 
94 0.183676 -0.0986717 -0.154922 0 0.114608 -0.0729951 -0.000357835 301.423 0.00762623 
98 0.169676 -0.091151 -0.143114 0 0.0818461 -0.0521289 0.00414591 246.477 -0.00413683 
102 0.181478 -0.0974907 -0.153068 0 0.107038 -0.0681735 0.000532515 316.112 0.00392 
106 0.180378 -0.0969002 -0.15214 0 0.101468 -0.0646266 0.00721376 278.432 0.00172053 
110 0.185332 -0.0995613 -0.156319 0 0.10484 -0.0667741 -0.0075946 306.595 0.00180896 
114 0.173504 -0.0932081 -0.146342 0 0.0873873 -0.0556588 0.00210135 272.669 -0.00179681 
118 0.0740996 -0.0740996 0 0 0 0.013107 0.00278663 78.2814 -0.0197208 
122 0.0830478 -0.0830478 0 0 0 0.00573899 -0.000922238 86.7097 -0.0167441 
126 0.0948437 -0.0948437 0 0 0 0.00645935 0.00652557 97.9512 -0.0130033 
130 0.0975483 -0.0975483 0 0 0 0.00505212 -0.000592115 85.0129 -0.00708038 
134 0.0895222 -0.0895222 0 0 0 0.00940027 -0.00273918 73.5485 -0.00072198 
3 32.3128 32.3085 0.530647 0 -0.00198299 0.120734 -0.0204089 17523.8 1.25178 
7 32.2463 32.2377 -0.744543 0 0.00816336 0.353462 -0.0338057 18012.3 3.24923 
11 31.901 31.8385 -1.99587 0 0.0363985 0.580637 0.000421493 18202.9 5.18685 
15 31.6951 31.53 -3.23096 0 0.0861593 0.840802 -0.0125429 18636.4 7.09885 
19 31.2672 30.9541 -4.41356 0 0.146561 1.02789 0.00682743 18390.9 8.89759 
23 30.7326 30.2299 -5.53632 0 0.232157 1.26764 0.011585 18608.8 10.5795 
27 30.1841 29.4522 -6.60663 0 0.336374 1.49955 -0.00434874 18528.4 12.1559 
31 29.3714 28.383 -7.55559 0 0.449961 1.6903 -0.00901333 18315.5 13.5026 
35 28.5617 27.2888 -8.43168 0 0.599871 1.94146 -0.0246393 18437.9 14.7228 
39 27.3873 25.8268 -9.11255 0 0.754127 2.13735 0.0217347 17967.7 15.5973 
43 25.9899 24.1484 -9.60878 0 0.950499 2.38875 0.00682708 18085.8 16.1851 
47 23.8942 21.8349 -9.70417 0 1.26317 2.8422 0.0202916 18085.7 16.215 
51 14.3712 11.0704 -9.16395 0 2.83917 3.42982 0.0437915 15464.7 10.2724 
55 2.37643 0.249426 -2.3633 0 1.48941 0.157195 -0.00306254 3649.91 1.33144 
59 0.279044 -0.149905 -0.23536 0 0.200443 -0.127666 -0.00514001 441.931 0.0392091 
63 0.217943 -0.117079 -0.183825 0 0.14862 -0.0946569 0.00182493 361.615 0.0233993 
67 0.19758 -0.106142 -0.166649 0 0.135258 -0.0861483 -6.81073e-05 332.788 0.020611 
71 0.204361 -0.109786 -0.172367 0 0.136956 -0.087232 0.00125701 357.429 0.0183107 
75 0.199061 -0.106938 -0.167898 0 0.127487 -0.0811998 0.00250205 326.354 0.0131504 
79 0.196223 -0.105413 -0.165504 0 0.12474 -0.0794495 -0.00116219 341.063 0.0117119 
83 0.17404 -0.0934938 -0.146795 0 0.109024 -0.0694374 -0.00488292 282.582 0.00888306 
87 0.179905 -0.0966464 -0.151741 0 0.120408 -0.07669 0.00510036 307.148 0.012784 
91 0.173374 -0.0931381 -0.146232 0 0.107058 -0.0681872 0.000251144 282.489 0.00701598 
95 0.166949 -0.089686 -0.140813 0 0.0925861 -0.0589693 0.00334369 249.657 0.00136325 
99 0.182165 -0.0978602 -0.153648 0 0.0980445 -0.0624459 0.00159055 264.743 8.03915e-05 
103 0.172584 -0.0927128 -0.145566 0 0.0982051 -0.0625481 0.000121481 298.552 0.0022085 
107 0.187149 -0.10054 -0.157849 0 0.110314 -0.0702628 0.0038691 320.241 0.00359831 
111 0.179119 -0.0962266 -0.151077 0 0.0870485 -0.0554445 -0.00729982 263.738 -0.00306704 
115 0.177997 -0.0956214 -0.150131 0 0.0975842 -0.0621531 0.000709612 273.321 0.000589214 
119 0.0758596 -0.0758596 0 0 0 0.00263951 0.0038242 87.4501 -0.0189656 
123 0.0869933 -0.0869933 0 0 0 0.0065214 0.00447365 85.1668 -0.0161364 
127 0.100566 -0.100566 0 0 0 0.00846601 -0.00539585 105.472 -0.0121656 
131 0.0983185 -0.0983185 0 0 -3.11919e-17 0.00193657 -0.00127525 96.4613 -0.00555045 
4 32.2045 32.2038 0.210691 0 -0.0010997 0.168087 0.0217821 17672.8 1.74705 
8 32.1605 32.143 -1.05979 0 0.0146296 0.443711 0.0170415 18622.6 3.73877 
12 31.8108 31.7273 -2.30337 0 0.0470041 0.64745 -0.0192212 18382.4 5.66202 
16 31.5652 31.3675 -3.52781 0 0.0978484 0.870016 -0.00124254 18540.1 7.55006 
20 31.1549 30.7981 -4.70165 0 0.169666 1.11139 0.0132895 18366.4 9.33454 
24 30.6496 30.0921 -5.81883 0 0.255276 1.32016 -0.0603968 18498.3 11.0021 
28 29.9755 29.1826 -6.84863 0 0.363683 1.54968 -0.0427256 18440.3 12.5035 
32 29.2512 28.1911 -7.80326 0 0.490643 1.77256 0.0209174 18664.8 13.8609 
36 28.2648 26.9214 -8.61036 0 0.637875 1.9944 -0.0113692 18305 14.9563 
40 27.0905 25.4568 -9.26535 0 0.812114 2.2313 -0.00313879 17909 15.7978 
44 25.6665 23.7529 -9.72469 0 1.01391 2.4765 -0.0345853 17918.8 16.3271 
48 22.8763 20.8121 -9.49649 0 1.39779 3.06333 0.00357696 18014.2 15.9056 
52 10.1134 6.4046 -7.82699 0 3.02292 2.47357 -0.0197291 12052.3 7.06036 
56 1.35607 -0.119746 -1.35078 0 1.0088 -0.0894295 0.00055088 2214.51 0.680836 
60 0.242018 -0.130015 -0.20413 0 0.176579 -0.112467 0.00703105 421.497 0.0357311 
64 0.223719 -0.120187 -0.188693 0 0.162648 -0.103598 -0.00356698 390.755 0.0311396 
68 0.197146 -0.105911 -0.166281 0 0.143408 -0.0913421 0.00424728 336.557 0.0262254 
72 0.185496 -0.09965 -0.156457 0 0.128519 -0.0818559 0.00088388 329.663 0.01921 
76 0.192931 -0.103644 -0.162727 0 0.128588 -0.0819005 0.000995716 312.226 0.0157507 
80 0.177867 -0.0955499 -0.150023 0 0.108163 -0.0688893 -0.000994911 289.748 0.00753598 
84 0.16376 -0.0879736 -0.138124 0 0.09793 -0.0623735 -0.000171898 236.764 0.00561033 
88 0.179232 -0.0962852 -0.151173 0 0.114514 -0.0729363 0.00657886 299.659 0.00965251 
92 0.190133 -0.102139 -0.160369 0 0.113134 -0.0720552 0.00330952 310.541 0.00544869 
96 0.171377 -0.0920642 -0.144548 0 0.104016 -0.0662493 -0.0059089 269.695 0.00551681 
100 0.171729 -0.0922558 -0.144843 0 0.0898868 -0.0572521 0.00585989 254.622 -0.00101301 
104 0.178589 -0.0959418 -0.15063 0 0.0934851 -0.0595441 -0.00537549 275.255 -0.000967014 
108 0.19478 -0.104637 -0.164287 0 0.106528 -0.0678494 6.05358e-06 307.747 0.000680264 
112 0.184251 -0.0989807 -0.155407 0 0.103204 -0.065732 -0.00153153 285.401 0.0013754 
116 0.165517 -0.0889174 -0.139605 0 0.0912526 -0.0581205 0.0010399 266.809 0.000681185 
120 0.0775833 -0.0775833 0 0 0 0.00438796 0.00219957 81.628 -0.0181451 
124 0.0843889 -0.0843889 0 0 0 0.00625303 -0.000672834 85.1912 -0.0142922 
128 0.105424 -0.105424 0 0 0 0.0107708 -0.00613305 111.923 -0.011053 
132 0.0984903 -0.0984903 0 0 0 0.00202965 0.00286256 77.846 -0.00397154 
