ITEM: TIMESTEP
14000
ITEM: NUMBER OF SURFS
134
ITEM: BOX BOUNDS oo ao pp
-10 10
0 10
-0.5 0.5
ITEM: SURFS id f_avg_pressure[1] f_avg_pressure[2] f_avg_pressure[3] f_avg_pressure[4] f_avg_shear[1] f_avg_shear[2] f_avg_shear[3] f_avg_heat_flux[*] f_avg_fdrag[*] 
1 32.174 32.153 1.16386 0 0.00173899 -0.0480418 -0.10346 16665.2 0.249125 
5 32.0667 32.0665 -0.106509 0 0.000642441 0.193419 0.0161032 18087.8 2.2369 
9 32.0421 32.0127 -1.37265 0 0.0205226 0.478623 0.0595908 18918.9 4.22063 
13 31.8966 31.7885 -2.62419 0 0.0592454 0.717677 0.0400691 18711.6 6.16744 
17 31.4038 31.1709 -3.81763 0 0.109711 0.895792 0.0364182 18628.3 7.98744 
21 31.1987 30.7934 -5.01294 0 0.194458 1.19451 0.0120115 18880.6 9.8153 
25 30.7546 30.1361 -6.13703 0 0.297901 1.46285 -0.00763771 19095.7 11.4965 
29 29.6817 28.8281 -7.06733 0 0.386202 1.57534 0.0222992 18713.5 12.8035 
33 29.146 28.0115 -8.05252 0 0.513951 1.78783 0.0105658 18916.4 14.2114 
37 28.0596 26.6402 -8.81153 0 0.71828 2.1716 0.0257804 18530.1 15.2509 
41 26.7757 25.0692 -9.40589 0 0.841517 2.24287 0.0203994 18166.5 15.9593 
45 25.3696 23.3822 -9.84318 0 1.02282 2.42967 -0.0171097 18196.7 16.438 
49 21.6766 19.6307 -9.19306 0 1.58774 3.39043 0.0123404 18237.9 15.4942 
53 6.38323 3.01668 -5.62541 0 2.88487 1.54704 -0.00115782 8979.19 4.46795 
57 0.711325 -0.197902 -0.683241 0 0.576245 -0.16691 0.0244268 1188.38 0.288722 
61 0.238458 -0.128102 -0.201128 0 0.163754 -0.104298 -0.00433688 377.288 0.0270546 
65 0.229491 -0.123284 -0.193564 0 0.151001 -0.0961751 -0.0179394 363.497 0.0200908 
69 0.223659 -0.12015 -0.188647 0 0.150188 -0.0956552 0.00529616 423.14 0.0207538 
73 0.184811 -0.099282 -0.155879 0 0.137008 -0.087263 -0.011983 321.712 0.0247831 
77 0.177306 -0.0952486 -0.14955 0 0.127376 -0.081126 0.00886671 303.969 0.0200138 
81 0.17582 -0.0944519 -0.148295 0 0.10907 -0.0694687 0.013322 265.406 0.0086097 
85 0.139266 -0.074815 -0.117464 0 0.102803 -0.0654775 0.00109928 243.201 0.0155335 
89 0.176247 -0.0946819 -0.148655 0 0.109605 -0.0698103 -0.011434 284.473 0.00777571 
93 0.144027 -0.0773742 -0.121478 0 0.0908454 -0.0578631 0.0103426 223.52 0.00656121 
97 0.17863 -0.0959634 -0.150664 0 0.108855 -0.0693334 0.0017047 256.994 0.00584077 
101 0.139125 -0.0747389 -0.117345 0 0.0819863 -0.0522182 -0.00674236 236.344 0.0030374 
105 0.186879 -0.100392 -0.157623 0 0.101839 -0.0648623 0.00248667 306.112 0.0005571 
109 0.159307 -0.0855803 -0.134368 0 0.0919524 -0.0585656 -0.00473256 241.794 0.00223757 
113 0.190018 -0.102079 -0.16027 0 0.106152 -0.0676099 0.00815514 324.692 0.00129189 
117 0.0584788 -0.0584788 0 0 0 0.00902695 -0.0101104 85.889 -0.0165067 
121 0.0785794 -0.0785794 0 0 0 0.000235739 0.000288227 89.3788 -0.0171107 
125 0.106227 -0.106227 0 0 0 -0.00237521 0.00698291 112.971 -0.0162773 
129 0.0702764 -0.0702764 0 0 0 0.00343765 -0.00179064 69.3525 -0.00623443 
133 0.0427302 -0.0427302 0 0 0 -0.00786826 0.000779557 38.5874 -0.00103383 
2 32.1102 32.0991 0.844241 0 -0.00343467 0.13059 -0.0188543 17300.5 0.746078 
6 32.0276 32.0248 -0.422872 0 0.00301922 0.228651 -0.0378485 18146.6 2.73075 
10 31.9563 31.9119 -1.68406 0 0.0260326 0.493303 -0.0421891 18711 4.70271 
14 31.7103 31.5755 -2.92037 0 0.0664796 0.718788 0.0279277 18834.6 6.61634 
18 31.3835 31.1115 -4.12277 0 0.137432 1.0371 0.125576 19070.9 8.45999 
22 30.901 30.4489 -5.26681 0 0.219759 1.27049 0.0380207 18635.3 10.1831 
26 30.2968 29.6263 -6.33847 0 0.322054 1.50529 0.00311386 18781.4 11.7674 
30 29.7064 28.7808 -7.35759 0 0.429212 1.67896 0.0169602 18710.1 13.241 
34 28.8656 27.6621 -8.24837 0 0.576397 1.93303 -0.0605467 18631 14.4882 
38 27.6105 26.1269 -8.92893 0 0.726246 2.12507 0.0967912 18328.3 15.364 
42 26.3859 24.6115 -9.51248 0 0.912808 2.3617 -0.0328084 17969.5 16.091 
46 24.6752 22.6464 -9.79807 0 1.1479 2.65315 -0.0274179 18194.2 16.3663 
50 18.964 16.6613 -9.05736 0 2.00727 3.69242 -0.0341092 17564.4 13.5598 
54 4.37117 1.28628 -4.17763 0 2.31488 0.712745 0.0778993 6067.55 2.74672 
58 0.387761 -0.17751 -0.344744 0 0.339206 -0.174659 -0.0135701 733.972 0.122511 
62 0.204537 -0.109878 -0.172517 0 0.156543 -0.0997048 0.0268217 383.18 0.0350148 
66 0.223392 -0.120005 -0.188421 0 0.133632 -0.0851097 -0.0299044 383.759 0.00976203 
70 0.227275 -0.122094 -0.191695 0 0.151614 -0.0965655 0.00559567 391.57 0.0201442 
74 0.164017 -0.0881112 -0.13834 0 0.0983564 -0.062645 -0.00507051 271.337 0.00664324 
78 0.167194 -0.0898203 -0.141018 0 0.107596 -0.0685327 0.00282802 289.076 0.0109227 
82 0.184551 -0.0991449 -0.155658 0 0.11698 -0.0745094 -0.0173125 301.271 0.010353 
86 0.170686 -0.0916946 -0.143965 0 0.0941908 -0.0599924 0.00718292 277.174 0.00136424 
90 0.21062 -0.113147 -0.177647 0 0.12542 -0.0798822 -0.00495313 358.555 0.00629043 
94 0.18451 -0.0991198 -0.155625 0 0.0980989 -0.0624805 0.00849864 247.476 -0.000488548 
98 0.160269 -0.0860976 -0.135179 0 0.0925277 -0.0589321 0.00456826 251.16 0.00285869 
102 0.232233 -0.124757 -0.195878 0 0.144337 -0.0919302 0.000905287 472.803 0.00803983 
106 0.165542 -0.0889301 -0.139627 0 0.113041 -0.0719972 0.0104653 255.329 0.0090809 
110 0.240468 -0.129181 -0.202823 0 0.138375 -0.0881323 -0.00242959 435.091 0.00315041 
114 0.201689 -0.108349 -0.170114 0 0.0802687 -0.0511248 0.00914745 290.643 -0.00866806 
118 0.076323 -0.076323 0 0 0 0.0225343 -0.00768943 81.8198 -0.0203125 
122 0.0754015 -0.0754015 0 0 0 0.0175528 0.0083622 74.9725 -0.0152025 
126 0.0886434 -0.0886434 0 0 0 -0.00119987 0.0190701 72.349 -0.0121532 
130 0.0915945 -0.0915945 0 0 0 0.00694031 -0.00167817 91.0432 -0.00664823 
134 0.146258 -0.146258 0 0 0 0.0273241 -0.00236144 150.582 -0.00117954 
3 32.1865 32.1821 0.528572 0 -0.000964214 0.0587062 -0.00822825 17774.8 1.24693 
7 32.1101 32.1015 -0.741398 0 0.00751038 0.325189 -0.02842 18021.1 3.23545 
11 31.9332 31.8706 -1.99788 0 0.0359916 0.574146 0.00289611 18633.5 5.19201 
15 31.7184 31.5531 -3.23334 0 0.0897261 0.87561 -0.0787324 19019.8 7.10486 
19 31.3104 30.9969 -4.41966 0 0.150991 1.05896 0.0140031 18958.2 8.91111 
23 30.5993 30.0987 -5.51231 0 0.238447 1.30199 -0.0024477 18661.2 10.5361 
27 30.0579 29.329 -6.57899 0 0.32839 1.46396 -0.0350495 18569 12.1023 
31 29.493 28.5005 -7.58687 0 0.470556 1.76767 -0.0646759 18584.6 13.5673 
35 28.5656 27.2925 -8.43283 0 0.602274 1.94924 -0.0098103 18668.5 14.726 
39 27.4242 25.8617 -9.12484 0 0.768009 2.17669 0.0170511 18162.8 15.6259 
43 25.9813 24.1404 -9.6056 0 0.958264 2.40827 -0.0559188 18260.7 16.185 
47 23.8301 21.7763 -9.6781 0 1.2809 2.88211 0.0174224 18032.3 16.1863 
51 14.505 11.1735 -9.24928 0 2.92588 3.53457 0.0129764 15779.9 10.4126 
55 2.42646 0.254677 -2.41306 0 1.54781 0.163358 0.0518888 3810.92 1.38017 
59 0.302386 -0.162444 -0.255047 0 0.232139 -0.147854 -0.0279832 482.288 0.0540717 
63 0.232111 -0.12469 -0.195775 0 0.141732 -0.0902696 0.00117398 341.05 0.0126426 
67 0.194446 -0.104458 -0.164005 0 0.144575 -0.0920823 -0.00879185 328.645 0.0283981 
71 0.189439 -0.10177 -0.159781 0 0.115819 -0.0737689 0.0123802 307.017 0.00946819 
75 0.200156 -0.107526 -0.168821 0 0.133057 -0.084747 0.0103386 372.35 0.0163382 
79 0.202501 -0.108785 -0.1708 0 0.118316 -0.0753579 0.00495074 360.944 0.00577549 
83 0.175178 -0.0941051 -0.147755 0 0.103368 -0.0658352 -0.00429447 263.445 0.00529829 
87 0.178531 -0.0959085 -0.150582 0 0.102768 -0.0654548 -0.0118625 277.172 0.00369049 
91 0.186424 -0.100149 -0.157239 0 0.122555 -0.078058 0.00021061 334.497 0.0112937 
95 0.173328 -0.0931128 -0.146194 0 0.0905331 -0.0576618 0.0137349 233.774 -0.00121263 
99 0.201075 -0.108019 -0.169597 0 0.0859859 -0.0547655 0.00673598 273.639 -0.00960822 
103 0.177484 -0.0953452 -0.149699 0 0.105901 -0.0674498 0.000862339 336.506 0.00424467 
107 0.161611 -0.0868207 -0.13631 0 0.0864099 -0.0550375 0.00054653 280.761 -0.000151233 
111 0.169288 -0.0909449 -0.142785 0 0.106505 -0.0678373 -0.00566883 290.529 0.00519984 
115 0.154448 -0.082971 -0.13027 0 0.0974385 -0.0620603 -0.0150377 261.901 0.00434299 
119 0.0677496 -0.0677496 0 0 0 0.00410453 -0.00347316 73.7048 -0.016938 
123 0.0615438 -0.0615438 0 0 0 0.00523298 0.00925696 71.6628 -0.0114158 
127 0.0947218 -0.0947218 0 0 0 0.0103107 -0.0120527 100.316 -0.0114587 
131 0.0925374 -0.0925374 0 0 -2.89596e-17 0.00157547 0.00829667 100.138 -0.00522409 
4 32.0896 32.0889 0.209939 0 -0.000919384 0.140526 0.00922869 17767.3 1.74082 
8 32.0141 31.9967 -1.05496 0 0.0139956 0.424483 0.0145371 18461.8 3.72168 
12 31.9542 31.8703 -2.31375 0 0.0495081 0.681942 -0.0538117 18749.3 5.68795 
16 31.6001 31.4022 -3.53172 0 0.0999824 0.888991 0.0531344 18939.8 7.5589 
20 31.0975 30.7413 -4.69298 0 0.167366 1.09633 -0.0265537 18768 9.31674 
24 30.5782 30.022 -5.80528 0 0.261212 1.35086 -0.0780924 18584.6 10.9788 
28 29.8221 29.0333 -6.8136 0 0.369623 1.575 -0.0738184 18636.3 12.4429 
32 29.3177 28.2553 -7.82102 0 0.493728 1.78371 0.0134615 18932.3 13.8934 
36 28.4305 27.0792 -8.66084 0 0.635146 1.98587 0.0170208 18577.3 15.0404 
40 27.1004 25.4661 -9.26874 0 0.820884 2.2554 -0.0619626 18123.6 15.8086 
44 25.6765 23.7622 -9.7285 0 0.966663 2.3611 -0.0236948 18056.1 16.3021 
48 22.8055 20.7476 -9.4671 0 1.41337 3.09747 0.0907879 17977.9 15.8707 
52 10.0228 6.34723 -7.75687 0 2.97018 2.43041 0.0283413 12034.8 6.97789 
56 1.4072 -0.12426 -1.4017 0 1.07461 -0.0952635 0.0640193 2241.5 0.727776 
60 0.237486 -0.127581 -0.200307 0 0.154234 -0.0982352 -0.00465942 381.313 0.0204525 
64 0.207493 -0.111471 -0.175008 0 0.153779 -0.097949 0.00286151 368.138 0.0310278 
68 0.178256 -0.095763 -0.150349 0 0.121841 -0.0776051 -0.00438332 313.547 0.0182387 
72 0.193112 -0.103741 -0.16288 0 0.148866 -0.0948149 0.0012518 390.217 0.0300266 
76 0.175325 -0.0941865 -0.147878 0 0.117092 -0.0745785 -0.00465178 307.878 0.0144637 
80 0.178483 -0.0958809 -0.150542 0 0.119291 -0.075977 -0.0108835 306.318 0.0139871 
84 0.159569 -0.0857221 -0.134589 0 0.0836654 -0.0532881 -0.00397344 222.55 -0.00115891 
88 0.186965 -0.10044 -0.157696 0 0.117475 -0.0748225 0.0178958 312.636 0.00902078 
92 0.174242 -0.0936025 -0.146966 0 0.102825 -0.0654896 0.00666415 267.936 0.0045704 
96 0.177066 -0.0951207 -0.149347 0 0.102883 -0.0655276 -0.00176117 273.09 0.00358303 
100 0.159363 -0.0856128 -0.134414 0 0.0841922 -0.053625 0.0184453 225.115 -0.000607445 
104 0.197902 -0.106317 -0.166919 0 0.092673 -0.0590269 -0.0239811 321.999 -0.00537062 
108 0.175786 -0.0944333 -0.148267 0 0.0949802 -0.0604942 -0.00807517 246.516 0.000196696 
112 0.168597 -0.0905712 -0.142203 0 0.108867 -0.0693386 0.0208991 290.14 0.00595825 
116 0.150487 -0.0808428 -0.126928 0 0.0908101 -0.0578387 -0.00549334 253.234 0.00290741 
120 0.0729267 -0.0729267 0 0 0 0.0106343 0.00454076 84.6494 -0.017056 
124 0.0777037 -0.0777037 0 0 0 0.00805149 0.0121415 100.813 -0.01316 
128 0.106768 -0.106768 0 0 0 0.00457191 -0.0106262 127.552 -0.0111939 
132 0.137081 -0.137081 0 0 0 0.00523892 -0.00785797 144.21 -0.00552769 
