ITEM: TIMESTEP
21000
ITEM: NUMBER OF SURFS
134
ITEM: BOX BOUNDS oo ao pp
-10 10
0 10
-0.5 0.5
ITEM: SURFS id f_avg_pressure[1] f_avg_pressure[2] f_avg_pressure[3] f_avg_pressure[4] f_avg_shear[1] f_avg_shear[2] f_avg_shear[3] f_avg_heat_flux[*] f_avg_fdrag[*] 
1 32.3781 32.3569 1.17124 0 0.00135739 -0.0374996 0.00290274 16724.3 0.250702 
5 32.2229 32.2227 -0.107027 0 0.0006591 0.198435 -0.00979879 17883.7 2.2478 
9 32.1011 32.0716 -1.37518 0 0.02179 0.508181 0.00456416 18822.6 4.22855 
13 31.7607 31.653 -2.61301 0 0.0563609 0.682735 -0.00159983 18107.1 6.14065 
17 31.4513 31.218 -3.8234 0 0.111012 0.906411 0.00068003 18220.8 7.99981 
21 31.079 30.6752 -4.9937 0 0.19276 1.18408 0.00844924 18555 9.77732 
25 30.4877 29.8745 -6.08377 0 0.287858 1.41354 -0.0012719 18522.8 11.3939 
29 29.8262 28.9684 -7.10173 0 0.398532 1.62564 -0.0254876 18555.6 12.8704 
33 28.9754 27.8476 -8.0054 0 0.522164 1.8164 0.00581401 18302.1 14.1339 
37 28.0028 26.5862 -8.79369 0 0.691661 2.09112 0.00887865 18330.2 15.206 
41 26.7572 25.0519 -9.3994 0 0.843093 2.24707 0.0322532 17982.6 15.9496 
45 25.1061 23.1394 -9.74094 0 1.04922 2.4924 -0.0136712 17717.6 16.2922 
49 21.725 19.6745 -9.2136 0 1.61739 3.45374 0.0145678 18333.6 15.5479 
53 6.6124 3.12499 -5.82738 0 2.9366 1.57478 -0.0138721 9318.65 4.5891 
57 0.732451 -0.203779 -0.703532 0 0.571281 -0.165472 0.00271423 1226.25 0.280448 
61 0.248164 -0.133316 -0.209314 0 0.182749 -0.116396 0.00230994 418.087 0.0375125 
65 0.220194 -0.11829 -0.185723 0 0.154837 -0.0986185 -0.00258384 367.885 0.0264918 
69 0.210996 -0.113347 -0.177966 0 0.136022 -0.0866331 0.00332081 343.567 0.0156668 
73 0.188301 -0.101157 -0.158822 0 0.129142 -0.082253 -0.00268416 313.754 0.0183842 
77 0.183583 -0.0986207 -0.154844 0 0.122684 -0.078138 0.00358415 312.582 0.0149906 
81 0.179953 -0.0966722 -0.151781 0 0.113935 -0.072567 0.00208672 290.553 0.0101671 
85 0.182381 -0.0979766 -0.153829 0 0.113197 -0.0720977 -0.00879068 297.846 0.00844746 
89 0.176587 -0.0948645 -0.148942 0 0.109271 -0.0695975 -0.00319722 290.848 0.00750644 
93 0.163938 -0.0880709 -0.138272 0 0.100785 -0.0641943 -0.0071849 265.614 0.00619262 
97 0.188099 -0.10105 -0.158651 0 0.102321 -0.0651718 0.00787968 283.785 0.000575743 
101 0.165751 -0.0890424 -0.139803 0 0.0909297 -0.0579143 -0.00146062 265.993 0.000790955 
105 0.18515 -0.0994635 -0.156165 0 0.109679 -0.0698558 -0.000842233 310.692 0.00393423 
109 0.184138 -0.0989197 -0.155311 0 0.0952741 -0.0606812 -0.00327382 276.354 -0.00128016 
113 0.200174 -0.107535 -0.168837 0 0.105071 -0.0669217 0.00861862 315.456 -0.000781344 
117 0.0645422 -0.0645422 0 0 0 0.00372036 -0.00047809 78.4827 -0.0182183 
121 0.0745564 -0.0745564 0 0 0 0.0113982 0.000729716 87.4634 -0.0162347 
125 0.0966242 -0.0966242 0 0 0 0.00622134 0.00468921 99.3604 -0.0148059 
129 0.0947656 -0.0947656 0 0 0 0.00626041 0.000959534 86.6074 -0.00840694 
133 0.0949484 -0.0949484 0 0 0 0.00868429 0.000931935 85.7366 -0.00229722 
2 32.2978 32.2866 0.849173 0 -0.00101004 0.0384031 -0.0126164 17169.4 0.750493 
6 32.1954 32.1926 -0.425088 0 0.00398847 0.302054 -0.0175233 18026.4 2.74514 
10 32.0176 31.9731 -1.68729 0 0.0291967 0.553261 0.0121206 18364.9 4.71219 
14 31.7375 31.6026 -2.92288 0 0.0645903 0.69836 0.0130928 18479.2 6.62161 
18 31.4452 31.1727 -4.13088 0 0.131912 0.995445 0.0191483 18750.9 8.47506 
22 30.8757 30.4239 -5.2625 0 0.210262 1.21558 -0.00702781 18432.3 10.1717 
26 30.2822 29.6121 -6.33543 0 0.306709 1.43357 -0.000552171 18476.3 11.7558 
30 29.5271 28.6071 -7.31317 0 0.419179 1.63971 -0.0108984 18302.3 13.1577 
34 28.7994 27.5985 -8.22943 0 0.573794 1.9243 -0.0321354 18356.8 14.4543 
38 27.6864 26.1987 -8.95347 0 0.716267 2.09586 0.0149418 18166.4 15.3994 
42 26.3867 24.6123 -9.51277 0 0.872225 2.2567 -0.0119053 17735.1 16.0659 
46 24.5058 22.491 -9.73084 0 1.16128 2.68409 -0.000999911 18002.3 16.2686 
50 18.9075 16.6116 -9.03035 0 2.01234 3.70176 -0.0263855 17658.5 13.5274 
54 4.2534 1.25163 -4.06507 0 2.25396 0.69399 0.00320399 6023.1 2.67382 
58 0.369497 -0.169149 -0.328507 0 0.295838 -0.152328 0.00280054 643.688 0.0959867 
62 0.235429 -0.126474 -0.198572 0 0.174231 -0.11097 0.00505054 417.052 0.0358345 
66 0.210968 -0.113331 -0.177942 0 0.147617 -0.0940167 -0.0109248 365.241 0.024562 
70 0.214494 -0.115228 -0.180915 0 0.1476 -0.094009 0.00678904 364.056 0.0220906 
74 0.18774 -0.100855 -0.158349 0 0.123337 -0.0785554 -0.00022054 310.767 0.0145776 
78 0.191664 -0.102966 -0.161657 0 0.125021 -0.0796308 -0.00266965 307.256 0.0135517 
82 0.189749 -0.101938 -0.160042 0 0.119495 -0.0761116 0.000127317 309.556 0.010192 
86 0.18072 -0.0970848 -0.152428 0 0.109907 -0.0700027 0.00365388 286.765 0.0070078 
90 0.188731 -0.101388 -0.159185 0 0.112288 -0.0715182 0.00101403 310.306 0.00558654 
94 0.17797 -0.0956063 -0.150109 0 0.109189 -0.0695437 -0.00472457 291.729 0.00649994 
98 0.173074 -0.0929763 -0.145979 0 0.092298 -0.0587859 0.00525534 266.607 -0.000301526 
102 0.179245 -0.0962912 -0.151184 0 0.101064 -0.0643688 0.00256709 291.334 0.00195966 
106 0.177713 -0.0954682 -0.149892 0 0.0965837 -0.0615155 0.00321977 275.755 0.00042013 
110 0.185626 -0.099719 -0.156567 0 0.100142 -0.0637817 -0.00438597 291.165 0.000145045 
114 0.175952 -0.0945234 -0.148407 0 0.0882898 -0.0562336 0.000243313 273.884 -0.00192423 
118 0.0718635 -0.0718635 0 0 0 0.00799806 0.00271279 76.4957 -0.0191257 
122 0.0803783 -0.0803783 0 0 0 0.00581663 -0.0037618 90.9338 -0.0162059 
126 0.0915086 -0.0915086 0 0 0 0.00781244 0.00336826 95.0253 -0.012546 
130 0.0961398 -0.0961398 0 0 0 0.00493713 0.00300949 89.1556 -0.00697814 
134 0.100307 -0.100307 0 0 0 0.00350273 0.00165398 74.4899 -0.000808955 
3 32.2938 32.2895 0.530335 0 -0.00201299 0.122561 -0.0206301 17500.3 1.25105 
7 32.1695 32.1609 -0.74277 0 0.00811169 0.351225 -0.0208011 17895.1 3.24149 
11 31.9194 31.8568 -1.99702 0 0.0356818 0.569204 -0.00135027 18156.6 5.18972 
15 31.6966 31.5315 -3.23112 0 0.0851808 0.831254 -0.012776 18621.1 7.09897 
19 31.3244 31.0108 -4.42164 0 0.145432 1.01997 0.0159114 18435.3 8.91349 
23 30.7631 30.2598 -5.54181 0 0.2325 1.26951 -0.0142035 18629.6 10.59 
27 30.1539 29.4227 -6.60001 0 0.332845 1.48382 -0.00247831 18470.5 12.1424 
31 29.4202 28.4301 -7.56813 0 0.455056 1.70944 -0.00421527 18313.1 13.5271 
35 28.5759 27.3023 -8.43586 0 0.600524 1.94357 -0.0151762 18466.8 14.7302 
39 27.4042 25.8428 -9.11818 0 0.748224 2.12062 0.0193163 17989.3 15.6032 
43 25.9809 24.14 -9.60546 0 0.949216 2.38553 0.00377344 18044.7 16.1789 
47 23.835 21.7808 -9.6801 0 1.26814 2.85339 0.0271685 18025.4 16.1805 
51 14.2871 11.0056 -9.11032 0 2.82783 3.41612 0.0422951 15394 10.2162 
55 2.37483 0.249258 -2.36171 0 1.49512 0.157797 0.00559639 3646.41 1.33568 
59 0.27388 -0.147131 -0.231004 0 0.196023 -0.124851 -0.00429337 443.487 0.0379327 
63 0.223073 -0.119835 -0.188152 0 0.154107 -0.0981515 0.00223442 377.219 0.0254256 
67 0.210136 -0.112887 -0.177239 0 0.147174 -0.0937378 -0.00556574 360.238 0.0242715 
71 0.205755 -0.110535 -0.173543 0 0.138202 -0.0880253 -0.00123353 367.007 0.0186455 
75 0.197918 -0.106324 -0.166934 0 0.130511 -0.0831255 0.00428759 333.101 0.0154783 
79 0.190142 -0.102146 -0.160375 0 0.121309 -0.0772638 -0.000297071 319.67 0.011612 
83 0.172563 -0.0927004 -0.145549 0 0.104695 -0.0666801 -0.000948555 264.641 0.0068606 
87 0.180952 -0.0972088 -0.152624 0 0.114107 -0.0726769 0.00605955 300.333 0.00909149 
91 0.171473 -0.0921168 -0.144628 0 0.103414 -0.0658664 -0.000205402 279.757 0.00569411 
95 0.176157 -0.0946327 -0.14858 0 0.099925 -0.0636436 0.00367841 266.465 0.0024877 
99 0.183235 -0.0984351 -0.15455 0 0.0998853 -0.0636183 0.0002744 273.293 0.000632427 
103 0.175768 -0.0944237 -0.148252 0 0.100056 -0.0637273 0.0014417 294.992 0.00226496 
107 0.190969 -0.102592 -0.161071 0 0.104084 -0.0662948 0.000424877 309.906 0.000549293 
111 0.185129 -0.0994549 -0.156145 0 0.0921327 -0.0586828 -0.00649637 283.341 -0.00244686 
115 0.183612 -0.0986377 -0.154867 0 0.0929497 -0.0592014 0.000555001 278.76 -0.00170747 
119 0.075037 -0.075037 0 0 0 0.000254445 0.000140489 87.89 -0.01876 
123 0.087138 -0.087138 0 0 0 0.00566896 -0.000528575 85.1489 -0.0161633 
127 0.102852 -0.102852 0 0 0 0.00293734 -0.0056998 106.572 -0.0124422 
131 0.0983745 -0.0983745 0 0 -3.10193e-17 0.0041378 -0.000189926 101.898 -0.00555361 
4 32.2538 32.2531 0.211014 0 -0.00108078 0.165196 0.00429316 17727.2 1.74972 
8 32.1549 32.1375 -1.0596 0 0.0146312 0.443761 0.0148183 18611.2 3.73812 
12 31.8513 31.7677 -2.30629 0 0.0470759 0.64844 -0.00938483 18371.9 5.66922 
16 31.5797 31.3818 -3.52943 0 0.0971268 0.8636 -0.0168137 18546.2 7.55333 
20 31.1529 30.7961 -4.70135 0 0.167253 1.09559 0.00937749 18332.8 9.33324 
24 30.6408 30.0835 -5.81717 0 0.253657 1.31179 -0.0246357 18499.8 10.9984 
28 29.9547 29.1624 -6.84388 0 0.357354 1.52272 -0.0148166 18332.6 12.4923 
32 29.2147 28.156 -7.79353 0 0.492468 1.77916 0.00204084 18579.4 13.8448 
36 28.2564 26.9134 -8.60779 0 0.635196 1.98602 -0.0116467 18310 14.9504 
40 27.0826 25.4494 -9.26266 0 0.813907 2.23623 -0.0213333 17904 15.7944 
44 25.6487 23.7364 -9.71795 0 1.01494 2.47903 -0.0235225 17867.6 16.3169 
48 22.8534 20.7912 -9.48699 0 1.39485 3.05688 0.0172322 17988.2 15.8886 
52 10.046 6.36195 -7.77486 0 2.99832 2.45344 -0.0147389 12004.5 7.01 
56 1.38429 -0.122237 -1.37888 0 1.0316 -0.0914512 -0.0056062 2286.49 0.696393 
60 0.24063 -0.129269 -0.202958 0 0.169675 -0.10807 -0.000215263 404.064 0.0310057 
64 0.224502 -0.120608 -0.189353 0 0.163501 -0.104141 -0.0028393 378.106 0.0314563 
68 0.203959 -0.109571 -0.172028 0 0.15069 -0.0959801 0.00207775 352.017 0.028758 
72 0.183696 -0.0986828 -0.154939 0 0.123321 -0.0785453 -0.00193243 318.255 0.0163949 
76 0.188728 -0.101386 -0.159182 0 0.126123 -0.0803304 0.00176342 317.151 0.0156199 
80 0.181977 -0.0977581 -0.15349 0 0.107784 -0.068648 0.00535556 290.653 0.00599029 
84 0.167273 -0.0898608 -0.141087 0 0.100295 -0.0638796 -8.91199e-05 250.154 0.0058794 
88 0.183782 -0.0987296 -0.155011 0 0.111312 -0.0708966 0.00616537 304.775 0.00666238 
92 0.18501 -0.099387 -0.156048 0 0.110101 -0.0701231 0.000666728 291.547 0.00530913 
96 0.181888 -0.0977112 -0.153414 0 0.109366 -0.0696566 -0.00153948 286.88 0.00537957 
100 0.176596 -0.0948705 -0.148948 0 0.0987064 -0.0628696 0.00678102 269.434 0.00164022 
104 0.19128 -0.102759 -0.161334 0 0.100301 -0.0638854 -0.00491949 302.651 -0.0009677 
108 0.200344 -0.107626 -0.16898 0 0.108369 -0.0690215 -0.000534259 317.118 0.000267143 
112 0.189583 -0.101845 -0.159904 0 0.103127 -0.0656827 -0.000354414 301.901 0.000417413 
116 0.170682 -0.0916921 -0.143962 0 0.0853329 -0.0543502 -0.00526673 259.302 -0.00185496 
120 0.0780602 -0.0780602 0 0 0 0.00631366 -0.000258844 86.7133 -0.0182567 
124 0.0819185 -0.0819185 0 0 0 0.00585925 -0.00138942 88.5674 -0.0138738 
128 0.109329 -0.109329 0 0 0 0.0110782 -0.00626381 112.213 -0.0114624 
132 0.100624 -0.100624 0 0 0 0.00384328 0.000549943 80.7327 -0.00405756 
