ITEM: TIMESTEP
15000
ITEM: NUMBER OF SURFS
134
ITEM: BOX BOUNDS oo ao pp
-10 10
0 10
-0.5 0.5
ITEM: SURFS id f_avg_pressure[1] f_avg_pressure[2] f_avg_pressure[3] f_avg_pressure[4] f_avg_shear[1] f_avg_shear[2] f_avg_shear[3] f_avg_heat_flux[*] f_avg_fdrag[*] 
1 32.241 32.2199 1.16628 0 0.000254831 -0.00704 -0.0294857 16604.9 0.249631 
5 32.169 32.1689 -0.106849 0 0.000723031 0.217683 0.0147325 18107.7 2.24405 
9 32.0755 32.0461 -1.37408 0 0.0218566 0.509735 0.0471818 18911.1 4.2252 
13 31.7195 31.6119 -2.60962 0 0.0596412 0.722472 0.0324707 18222.6 6.13333 
17 31.4548 31.2215 -3.82383 0 0.112652 0.919801 0.0196673 18338.5 8.00112 
21 31.0976 30.6936 -4.9967 0 0.184227 1.13167 0.053521 18697.2 9.78046 
25 30.6969 30.0795 -6.12551 0 0.296621 1.45657 0.0116951 18855.9 11.4746 
29 29.7653 28.9092 -7.08722 0 0.387 1.5786 -0.0250255 18710.5 12.8394 
33 29.0806 27.9487 -8.03448 0 0.524454 1.82436 -0.0140437 18710.3 14.1854 
37 28.0146 26.5975 -8.79739 0 0.696152 2.1047 0.027194 18464.4 15.2148 
41 26.8359 25.1256 -9.42704 0 0.848311 2.26098 0.00809541 18107.3 15.9982 
45 25.1112 23.144 -9.74291 0 1.04615 2.48511 -0.036625 17772.3 16.2933 
49 21.7541 19.7008 -9.22592 0 1.61853 3.45617 0.056954 18298.3 15.5679 
53 6.49275 3.06844 -5.72193 0 2.92804 1.57019 0.0162997 9105.28 4.53981 
57 0.749758 -0.208594 -0.720156 0 0.583126 -0.168903 0.00671029 1188.95 0.285813 
61 0.242922 -0.1305 -0.204892 0 0.182954 -0.116527 -0.00116123 404.955 0.039805 
65 0.216112 -0.116097 -0.182279 0 0.157229 -0.100142 -0.0105216 361.138 0.0298151 
69 0.219598 -0.117968 -0.185221 0 0.145205 -0.0924815 0.00661588 382.308 0.0188182 
73 0.173338 -0.0931187 -0.146202 0 0.117936 -0.0751153 -0.00738783 288.41 0.0163027 
77 0.17973 -0.096551 -0.151595 0 0.11934 -0.0760081 0.00871218 303.193 0.0141967 
81 0.193919 -0.104175 -0.163561 0 0.125412 -0.0798774 0.00318538 312.638 0.0125082 
85 0.169696 -0.0911621 -0.14313 0 0.120735 -0.0768984 -0.00538817 291.708 0.0164128 
89 0.176138 -0.0946235 -0.148563 0 0.111145 -0.0707907 -0.00860796 293.686 0.00860809 
93 0.159765 -0.0858293 -0.134753 0 0.107904 -0.0687283 -0.00763278 284.781 0.0107515 
97 0.180823 -0.0971417 -0.152514 0 0.0993625 -0.0632875 0.00495814 260.559 0.00100617 
101 0.147001 -0.0789698 -0.123988 0 0.0785951 -0.0500583 0.000520661 236.989 -0.000157016 
105 0.208252 -0.111874 -0.17565 0 0.117908 -0.075097 0.00394005 359.312 0.00232397 
109 0.157283 -0.084493 -0.13266 0 0.0871734 -0.0555218 -0.0125011 254.166 0.000941244 
113 0.185258 -0.0995219 -0.156256 0 0.100053 -0.0637257 0.0024887 293.28 0.00016859 
117 0.0537632 -0.0537632 0 0 0 0.00541203 -0.00671972 70.8742 -0.0151757 
121 0.077623 -0.077623 0 0 0 0.0103348 0.00248024 89.7208 -0.0169024 
125 0.0918742 -0.0918742 0 0 0 -0.00286043 0.0109326 101.075 -0.014078 
129 0.094944 -0.094944 0 0 0 0.0118898 -0.00354829 83.7533 -0.00842277 
133 0.0678643 -0.0678643 0 0 0 -0.00654763 0.00495382 59.1926 -0.00164194 
2 32.2363 32.2251 0.847556 0 -0.00169666 0.064509 -0.00252308 17157 0.749048 
6 32.1425 32.1397 -0.42439 0 0.00361509 0.273777 -0.0492659 18143.9 2.74059 
10 31.9714 31.927 -1.68485 0 0.0284635 0.539367 -0.0219887 18547.3 4.70529 
14 31.6348 31.5004 -2.91342 0 0.0645704 0.698145 0.0136875 18470.1 6.60023 
18 31.3537 31.082 -4.11886 0 0.130299 0.98327 0.065909 18629.1 8.45008 
22 30.8599 30.4083 -5.2598 0 0.220924 1.27722 -0.00287664 18440.5 10.1701 
26 30.2831 29.613 -6.33562 0 0.314929 1.47199 -0.00326855 18608.8 11.7593 
30 29.6114 28.6888 -7.33406 0 0.426786 1.66947 0.0388155 18588 13.1982 
34 28.7847 27.5845 -8.22524 0 0.584708 1.9609 -0.0256223 18483.4 14.4527 
38 27.6926 26.2046 -8.95549 0 0.719299 2.10474 0.039367 18238.5 15.4045 
42 26.38 24.6061 -9.51037 0 0.893383 2.31144 0.00132854 17828.2 16.0753 
46 24.5161 22.5004 -9.7349 0 1.15012 2.65828 0.0419926 18060.7 16.2674 
50 19.061 16.7465 -9.10369 0 2.06192 3.79296 -0.0540248 17837.4 13.6614 
54 4.23189 1.2453 -4.04451 0 2.22906 0.686321 0.00450778 5884.82 2.65 
58 0.395148 -0.180892 -0.351312 0 0.328596 -0.169195 -0.00312114 694.702 0.11191 
62 0.228477 -0.12274 -0.192709 0 0.172179 -0.109664 0.0128097 416.997 0.0370969 
66 0.215391 -0.115707 -0.181673 0 0.144968 -0.0923301 -0.0155414 380.262 0.0209626 
70 0.215169 -0.115591 -0.181485 0 0.146809 -0.0935056 -0.00136134 365.568 0.0213037 
74 0.18162 -0.097568 -0.153188 0 0.11723 -0.0746659 -0.00719982 288.156 0.0127494 
78 0.176468 -0.0948028 -0.148841 0 0.11728 -0.0747004 -0.0102467 298.685 0.0138112 
82 0.185309 -0.0995522 -0.156297 0 0.123835 -0.0788758 -0.00840218 321.901 0.0140959 
86 0.181406 -0.0974532 -0.153006 0 0.10096 -0.064304 0.010502 271.545 0.00191664 
90 0.200035 -0.10746 -0.168719 0 0.124504 -0.079299 -0.00150102 358.002 0.00873548 
94 0.194727 -0.104609 -0.164243 0 0.128744 -0.0819988 -0.00235555 341.749 0.0115502 
98 0.15825 -0.0850126 -0.133476 0 0.0918388 -0.0584933 0.0040395 260.807 0.00303478 
102 0.204668 -0.109948 -0.172627 0 0.125722 -0.0800736 -0.000823926 394.71 0.00647656 
106 0.181119 -0.0972981 -0.152765 0 0.108085 -0.0688407 0.0123313 266.994 0.00406262 
110 0.197141 -0.105905 -0.166279 0 0.109851 -0.0699654 -0.00411316 333.721 0.00135214 
114 0.188303 -0.101158 -0.158824 0 0.0861302 -0.0548581 0.00720971 277.548 -0.00463893 
118 0.083452 -0.083452 0 0 0 0.0126991 -0.00186075 90.5993 -0.0222098 
122 0.0856205 -0.0856205 0 0 0 0.0105071 0.00383403 102.703 -0.0172628 
126 0.0866374 -0.0866374 0 0 0 -0.00490313 0.00954686 71.1557 -0.0118782 
130 0.0915086 -0.0915086 0 0 0 0.0138938 -0.00156172 85.5924 -0.00664199 
134 0.0986735 -0.0986735 0 0 0 0.0263624 -0.00474108 97.2796 -0.000795784 
3 32.3512 32.3469 0.531278 0 -0.00147905 0.090052 -0.0299884 17672 1.25329 
7 32.2342 32.2256 -0.744265 0 0.00780288 0.337854 -0.029195 18105.9 3.24798 
11 31.8397 31.7773 -1.99203 0 0.0375561 0.599104 -0.00738353 18193.7 5.17708 
15 31.6075 31.4429 -3.22204 0 0.0836124 0.815948 -0.0411453 18593.7 7.07873 
19 31.395 31.0806 -4.4316 0 0.144797 1.01552 -0.00752509 18648.3 8.9333 
23 30.793 30.2892 -5.54719 0 0.233494 1.27494 0.0177739 18702.9 10.6006 
27 30.2296 29.4966 -6.61658 0 0.33724 1.50341 0.0201625 18771.6 12.1743 
31 29.4837 28.4915 -7.58448 0 0.454483 1.70729 -0.0259256 18424.9 13.5556 
35 28.5994 27.3248 -8.44282 0 0.603219 1.95229 0.027325 18567.9 14.7436 
39 27.4133 25.8513 -9.12119 0 0.762325 2.16059 0.0337173 18116.3 15.6165 
43 26.042 24.1968 -9.62806 0 0.954139 2.3979 0.00378306 18158 16.2187 
47 23.8766 21.8188 -9.69701 0 1.27541 2.86974 0.0265032 18083.4 16.2123 
51 14.1733 10.9179 -9.03774 0 2.83611 3.42612 0.0528919 15184.6 10.1576 
55 2.39813 0.251704 -2.38489 0 1.51764 0.160174 0.0274379 3735.15 1.3548 
59 0.295934 -0.158978 -0.249606 0 0.224981 -0.143294 -0.0187407 473.816 0.0512067 
63 0.230333 -0.123735 -0.194276 0 0.15112 -0.0962492 0.00512684 340.905 0.0203163 
67 0.197016 -0.105839 -0.166173 0 0.140189 -0.0892889 -0.00454867 326.6 0.024316 
71 0.196803 -0.105726 -0.165992 0 0.1286 -0.0819097 0.00904454 326.761 0.0154155 
75 0.201787 -0.108402 -0.170197 0 0.118446 -0.0754414 0.00360035 338.978 0.00642777 
79 0.200315 -0.107611 -0.168955 0 0.123085 -0.0783953 0.00490023 343.819 0.00937703 
83 0.166493 -0.0894399 -0.14043 0 0.106513 -0.0678381 -0.00327359 279.034 0.00976559 
87 0.182577 -0.0980818 -0.153994 0 0.112266 -0.0715044 -0.00263511 303.633 0.00763137 
91 0.194697 -0.104593 -0.164217 0 0.114847 -0.0731481 0.00903798 322.346 0.00516823 
95 0.177882 -0.095559 -0.150035 0 0.0982552 -0.0625801 0.00507581 263.466 0.00126741 
99 0.189899 -0.102015 -0.16017 0 0.0908493 -0.0578632 0.0103172 265.584 -0.00486903 
103 0.18426 -0.0989854 -0.155414 0 0.110103 -0.0701263 0.00394578 343.208 0.00447067 
107 0.191402 -0.102825 -0.161437 0 0.120545 -0.0767793 -0.00265657 340.967 0.00652347 
111 0.17539 -0.094223 -0.147931 0 0.0996918 -0.0634975 -0.00925337 270.59 0.0018275 
115 0.152022 -0.0816674 -0.128223 0 0.0904726 -0.0576236 -0.00719283 234.516 0.00264324 
119 0.0682403 -0.0682403 0 0 0 0.000635318 -0.00325248 77.5632 -0.0170607 
123 0.0676537 -0.0676537 0 0 0 0.00416221 0.00326059 63.926 -0.0125491 
127 0.0987952 -0.0987952 0 0 0 0.0144724 -0.00695646 106.722 -0.0119515 
131 0.0982167 -0.0982167 0 0 -3.03925e-17 0.000681741 -0.00151728 98.0655 -0.0055447 
4 32.1695 32.1689 0.210463 0 -0.000998842 0.152671 -0.0155513 17782.2 1.74516 
8 32.0665 32.0491 -1.05669 0 0.0149196 0.452509 0.0251183 18606.2 3.72788 
12 31.7431 31.6597 -2.29846 0 0.0482805 0.665032 -0.034314 18320.7 5.6502 
16 31.5392 31.3416 -3.52491 0 0.0984157 0.87506 0.0405432 18565.7 7.544 
20 31.1531 30.7963 -4.70137 0 0.166871 1.09309 -0.0358864 18481.5 9.33316 
24 30.6743 30.1164 -5.82353 0 0.257637 1.33237 -0.0456823 18555 11.0117 
28 29.9332 29.1415 -6.83897 0 0.365609 1.55789 -0.0237362 18549 12.487 
32 29.3399 28.2767 -7.82694 0 0.492258 1.7784 0.0325507 18798.1 13.903 
36 28.3334 26.9867 -8.63125 0 0.625282 1.95503 -0.00710548 18474.3 14.9849 
40 27.1084 25.4736 -9.27148 0 0.809389 2.22382 -0.0296948 18014.7 15.8062 
44 25.6657 23.7521 -9.72437 0 0.990565 2.41949 -0.0615401 17889.1 16.3112 
48 22.7613 20.7074 -9.44873 0 1.40314 3.07505 0.0678842 17891.1 15.8345 
52 10.0533 6.36654 -7.78047 0 3.01445 2.46664 0.00657436 12002.4 7.02551 
56 1.35645 -0.119779 -1.35115 0 1.04404 -0.0925537 0.0385579 2266.22 0.7078 
60 0.233702 -0.125547 -0.197115 0 0.167373 -0.106604 -0.00534145 400.236 0.0320954 
64 0.201574 -0.108291 -0.170015 0 0.147978 -0.0942538 0.0037602 332.949 0.0291054 
68 0.192178 -0.103242 -0.162091 0 0.142982 -0.0910705 -0.00412005 338.439 0.0277938 
72 0.189666 -0.10189 -0.159974 0 0.13441 -0.0856077 -0.00228898 364.2 0.0216394 
76 0.202859 -0.108978 -0.171101 0 0.136032 -0.0866418 -0.00259176 333.934 0.0170833 
80 0.187848 -0.100912 -0.158442 0 0.121732 -0.0775317 -0.00742065 315.583 0.0124398 
84 0.151478 -0.0813756 -0.127764 0 0.0782327 -0.0498279 0.000530231 212.36 -0.00177097 
88 0.180236 -0.0968246 -0.15202 0 0.118738 -0.0756268 0.0162197 319.602 0.0116036 
92 0.202188 -0.108615 -0.170537 0 0.116319 -0.0740834 -0.000123002 322.727 0.00381747 
96 0.190614 -0.102399 -0.160774 0 0.114536 -0.0729491 0.00690988 294.242 0.00560194 
100 0.172817 -0.0928403 -0.145761 0 0.0896596 -0.0571074 0.00628169 235.711 -0.00136009 
104 0.187874 -0.10093 -0.158461 0 0.096104 -0.0612122 -0.0119819 277.698 -0.00189949 
108 0.18292 -0.0982657 -0.154284 0 0.0915065 -0.0582818 -0.0026925 267.215 -0.0024309 
112 0.186747 -0.100322 -0.157512 0 0.113481 -0.0722777 0.0107493 300.019 0.00428568 
116 0.153958 -0.0827077 -0.129856 0 0.0769291 -0.0489976 0.00580542 232.774 -0.0016856 
120 0.0739947 -0.0739947 0 0 0 0.00765997 -0.00186748 70.8771 -0.0173058 
124 0.0801802 -0.0801802 0 0 0 0.00460163 0.000944563 111.418 -0.0135794 
128 0.106772 -0.106772 0 0 0 0.00150445 -0.0094253 129.483 -0.0111943 
132 0.112471 -0.112471 0 0 0 0.00674164 0.000184986 97.5433 -0.0045353 
