ITEM: TIMESTEP
23000
ITEM: NUMBER OF CELLS
240
ITEM: BOX BOUNDS oo ao pp
-10 10
0 10
-0.5 0.5
ITEM: CELLS id proc f_avg_n f_avg_nrho f_avg_temp_tra f_avg_temp_rot f_avg_temp_vib f_avg_vel[1] f_avg_vel[2] f_avg_vel[3] f_avg_nrho_CO2 f_avg_nrho_O2 f_avg_nrho_C2 f_avg_nrho_CO f_avg_nrho_O f_avg_nrho_C f_avg_nrho_N2 f_avg_nrho_N f_avg_nrho_NO f_avg_nrho_CN 
65 0 24.707 8.71516e+16 6385.32 184.709 156.84 6994.55 10.1864 -1.25985 7.86999e+16 0 0 1.9048e+15 2.6385e+15 0 3.90836e+15 0 0 0 
129 0 26.37 9.30176e+16 9479.23 271.144 180.884 6704.91 23.8149 -1.18566 8.11938e+16 7.05481e+12 0 3.10412e+15 4.20114e+15 0 4.51155e+15 0 0 0 
193 0 24.567 8.66577e+16 6526.07 198.342 155.995 6980.91 9.5496 -1.36619 7.81249e+16 0 0 1.96829e+15 2.71257e+15 0 3.85192e+15 0 0 0 
257 0 25.619 9.03686e+16 9669.28 253.07 176.019 6688.88 14.8244 1.11411 7.89715e+16 1.05822e+13 0 3.32634e+15 3.97186e+15 0 4.08826e+15 0 0 0 
66 0 29.443 1.03857e+17 13742.4 406.906 208.11 6240.44 30.584 -0.579936 8.67106e+16 1.41096e+13 0 5.55566e+15 7.0407e+15 0 4.53624e+15 0 0 0 
130 0 34.352 1.21173e+17 18910.6 554.606 272.724 5493.33 38.5251 -0.931114 9.46226e+16 2.11644e+13 0 1.00284e+16 1.10549e+16 0 5.44631e+15 0 0 0 
194 0 28.603 1.00894e+17 14202.8 402.168 214.754 6192.67 31.1817 2.36187 8.4566e+16 1.05822e+13 0 5.67207e+15 6.33874e+15 0 4.30696e+15 0 0 0 
258 0 32.907 1.16076e+17 19231.5 542.56 263.615 5438.92 54.4187 1.94202 9.06754e+16 3.5274e+13 0 9.83793e+15 1.06986e+16 0 4.82902e+15 0 0 0 
579 0 29.781 2.10099e+17 15902.5 594.003 249.744 5899.93 61.6693 -0.891658 1.68673e+17 3.5274e+13 0 1.56969e+16 1.62754e+16 0 9.41817e+15 0 0 0 
1091 0 32.867 2.3187e+17 18986.7 749.801 316.011 5351.35 66.2702 -2.11895 1.76652e+17 4.93837e+13 0 2.10304e+16 2.38594e+16 0 1.02789e+16 0 0 0 
1603 0 17.969 1.26768e+17 23894.3 711.957 366.518 3943.22 34.6386 0.628323 8.69082e+16 3.5274e+13 0 1.63248e+16 1.79051e+16 0 5.59446e+15 0 0 0 
2115 0 21.468 1.51453e+17 23497 954.068 412.084 3315.68 43.6885 2.51686 9.93105e+16 3.5274e+13 0 2.28717e+16 2.33161e+16 0 5.91898e+15 0 0 0 
707 0 21.634 1.52624e+17 21564.4 706.873 323.684 4880.98 62.072 1.64937 1.13321e+17 4.93837e+13 0 1.56405e+16 1.66141e+16 0 6.99837e+15 0 0 0 
1219 0 25.023 1.76532e+17 23186.3 847.711 362.822 4233.78 76.7007 2.25418 1.25025e+17 1.05822e+14 0 2.25542e+16 2.23214e+16 0 6.5257e+15 0 0 0 
643 0 38.175 2.69317e+17 21533 885.318 343.281 4673.11 62.4554 -0.398391 1.92815e+17 8.46577e+13 0 3.35879e+16 3.28683e+16 0 9.96139e+15 0 0 0 
1667 0 27.757 1.9582e+17 21924 1009.93 456.973 2569.29 77.4349 1.66232 1.22394e+17 1.05822e+14 0 3.22123e+16 3.38349e+16 0 7.27351e+15 0 0 0 
2179 0 37.297 2.63123e+17 19059.7 1134.77 518.857 1891.27 90.3882 -1.98512 1.58169e+17 1.19932e+14 0 4.83184e+16 4.69568e+16 0 9.55926e+15 0 0 0 
771 0 30.1 2.1235e+17 23321.1 960.223 417.397 3455.32 113.502 -3.22775 1.41357e+17 1.12877e+14 0 3.03568e+16 3.16972e+16 0 8.82556e+15 0 0 0 
1283 0 38.234 2.69734e+17 21740.5 1085.72 477.503 2667.53 133.435 2.91786 1.69823e+17 2.18699e+14 0 4.56023e+16 4.38668e+16 0 1.02224e+16 0 0 0 
5251 0 29.561 4.17094e+17 18292.2 890.299 333.433 5364.95 61.0191 -0.594988 3.14842e+17 1.12877e+14 0 4.05369e+16 4.53906e+16 0 1.62119e+16 0 0 0 
9347 0 31.576 4.45525e+17 20071.2 1212.89 387.814 4830.01 51.6544 10.2671 3.18722e+17 4.23288e+14 0 5.87665e+16 5.15283e+16 0 1.6085e+16 0 0 0 
13443 0 19.611 2.76704e+17 22612.5 1156.95 456.896 3403.05 56.4033 -14.3316 1.78458e+17 1.41096e+14 0 4.39232e+16 4.21031e+16 0 1.20778e+16 0 0 0 
17539 0 22.167 3.12768e+17 22071.9 1193.67 464.273 2987.91 58.1811 5.63013 1.95051e+17 4.37398e+14 0 5.28264e+16 5.08511e+16 0 1.36017e+16 0 0 0 
4676 0 34.937 4.92948e+17 21341.2 1197.1 448.998 4209.43 50.6011 1.67783 3.31562e+17 1.12877e+14 0 7.04352e+16 7.37227e+16 0 1.7115e+16 0 0 0 
8772 0 40.829 5.76081e+17 21488.8 1368.51 489.712 3867.79 56.5402 3.70002 3.73891e+17 1.69315e+14 0 9.24744e+16 8.97513e+16 0 1.97958e+16 0 0 0 
12868 0 26.8 3.78138e+17 20682 1290.88 516.976 2523.7 73.3588 3.60156 2.3096e+17 1.12877e+14 0 6.75286e+16 6.49042e+16 0 1.46317e+16 0 0 0 
16964 0 31.832 4.49137e+17 19066.1 1396.76 551.158 2103 74.8847 5.23443 2.64541e+17 2.96302e+14 0 8.53349e+16 8.19204e+16 0 1.70444e+16 0 0 0 
5188 0 46.909 6.61868e+17 21221.4 1426.04 541.813 3226.58 50.8798 -12.0342 4.1653e+17 4.65617e+14 0 1.13568e+17 1.05977e+17 0 2.53268e+16 0 0 0 
9284 0 57.298 8.08453e+17 19227.5 1533.21 628.336 2518.69 53.9744 5.21638 4.819e+17 5.22056e+14 0 1.52172e+17 1.44228e+17 0 2.96302e+16 0 0 0 
13380 0 39.701 5.60166e+17 16620.2 1413.16 582.266 1640.73 66.0139 -3.86935 3.2668e+17 4.51508e+14 0 1.10478e+17 1.02408e+17 0 2.01485e+16 0 0 0 
17476 0 50.783 7.16529e+17 14187.5 1519.64 632.327 1273.93 66.2612 -3.73101 4.05397e+17 6.20823e+14 0 1.51735e+17 1.34324e+17 0 2.4452e+16 0 0 0 
5700 0 24.72 3.4879e+17 16293.2 1261.95 596.782 1468.9 93.1684 -4.2287 2.02134e+17 2.68083e+14 0 6.82341e+16 6.513e+16 0 1.30232e+16 0 0 0 
9796 0 30.254 4.26872e+17 14090 1233.5 571.051 1077.41 99.784 2.79886 2.45804e+17 2.68083e+14 0 8.65907e+16 7.85482e+16 0 1.56617e+16 0 0 0 
13892 0 24.229 3.41862e+17 16679.4 1144.08 524.795 1488.7 96.0514 6.89164 2.00949e+17 1.83425e+14 0 6.48901e+16 6.21529e+16 0 1.36863e+16 0 0 0 
17988 0 28.94 4.08332e+17 14292.1 1181.67 567.452 1117.81 120.683 -4.5754 2.36096e+17 2.53973e+14 0 8.0834e+16 7.6333e+16 0 1.48151e+16 0 0 0 
6212 0 37.621 5.30818e+17 12140.8 1269.83 583.533 838.781 101.697 3.16785 3.03498e+17 3.6685e+14 0 1.09674e+17 9.83863e+16 0 1.88928e+16 0 0 0 
10308 0 48.303 6.81537e+17 9632.68 1284.15 620.073 555.116 110.046 -1.83394 3.89651e+17 7.90138e+14 0 1.43311e+17 1.25138e+17 0 2.26459e+16 0 0 0 
14404 0 36.621 5.16708e+17 11991.8 1190.69 585.9 834.333 141.442 -4.09499 2.96302e+17 2.39863e+14 0 1.04933e+17 9.66085e+16 0 1.86247e+16 0 0 0 
18500 0 46.967 6.62686e+17 9729.6 1269.37 601.158 566.793 150.476 0.243616 3.79986e+17 6.06713e+14 0 1.3699e+17 1.21738e+17 0 2.33655e+16 0 0 0 
4804 0 24.681 3.48239e+17 19147.8 1175.01 546.87 2050.69 146.354 -1.6788 2.11447e+17 1.26987e+14 0 6.26185e+16 6.11087e+16 0 1.29385e+16 0 0 0 
8900 0 29.297 4.13369e+17 17342.3 1262.18 565.965 1679.89 161.679 -5.01938 2.47934e+17 3.10412e+14 0 7.90985e+16 7.11689e+16 0 1.48574e+16 0 0 0 
12996 0 22.971 3.24112e+17 19395.9 1257.67 515.368 2100.55 182.515 -10.8754 1.98325e+17 1.12877e+14 0 5.80752e+16 5.5606e+16 0 1.19932e+16 0 0 0 
17092 0 27.091 3.82244e+17 17742.1 1242.41 543.814 1790.34 196.108 -4.82943 2.26939e+17 1.83425e+14 0 7.25093e+16 6.81212e+16 0 1.44906e+16 0 0 0 
5316 0 35.261 4.97519e+17 14417 1297.21 570.112 1199.18 169.519 -0.0526709 2.94355e+17 4.51508e+14 0 9.68766e+16 8.84532e+16 0 1.7383e+16 0 0 0 
9412 0 45.667 6.44344e+17 12913.3 1286.69 584.057 1036.12 184.298 4.44899 3.777e+17 4.23288e+14 0 1.27819e+17 1.15882e+17 0 2.25189e+16 0 0 0 
13508 0 33.201 4.68453e+17 15898.2 1284.93 565.84 1466.53 215.654 -6.08344 2.78256e+17 3.38631e+14 0 9.12045e+16 8.12855e+16 0 1.73689e+16 0 0 0 
17604 0 40.654 5.73612e+17 13224.7 1322.47 597.857 1099.99 233.247 5.65359 3.36698e+17 4.51508e+14 0 1.16023e+17 1.00051e+17 0 2.03884e+16 0 0 0 
4868 0 57.782 8.15282e+17 9983.23 1343.57 611.81 669.99 195.169 -1.77791 4.73589e+17 4.37398e+14 0 1.7273e+17 1.41364e+17 0 2.7161e+16 0 0 0 
8964 0 78.303 1.10483e+18 7698.78 1297.26 616.573 444.785 196.968 3.08961 6.37839e+17 7.90138e+14 0 2.33401e+17 1.93485e+17 1.41096e+13 3.92953e+16 0 0 0 
13060 0 52.036 7.34208e+17 10485 1311.41 609.303 755.881 246.645 -0.663451 4.28551e+17 4.93837e+14 0 1.50493e+17 1.29597e+17 0 2.50728e+16 0 0 0 
17156 0 68.825 9.71094e+17 8366.19 1300.25 621.996 517.246 247.399 -2.79956 5.75658e+17 6.06713e+14 0 1.9951e+17 1.61894e+17 0 3.34257e+16 0 0 0 
4740 0 74.617 1.05282e+18 16301.2 1684.13 654.587 1835.04 41.184 -9.75462 6.01154e+17 6.49042e+14 0 2.16159e+17 2.00258e+17 0 3.45968e+16 0 0 0 
8836 0 106.11 1.49717e+18 12147.9 1768.08 679.781 1126.32 50.5756 5.05947 8.52094e+17 1.07233e+15 0 3.13741e+17 2.81134e+17 0 4.91297e+16 0 0 0 
12932 0 68.222 9.62586e+17 11330.6 1432.76 650.528 862.201 77.6548 -4.28305 5.4885e+17 1.24165e+15 0 2.03884e+17 1.76497e+17 0 3.21135e+16 0 0 0 
17028 0 99.133 1.39873e+18 7967.7 1437.76 644.738 472.272 93.0022 -0.919237 7.93849e+17 1.10055e+15 0 3.03399e+17 2.53874e+17 0 4.65053e+16 0 0 0 
5764 0 65.134 9.19016e+17 7678.6 1266.4 625.475 346.543 121.742 -0.793997 5.22987e+17 7.4781e+14 0 1.94882e+17 1.69118e+17 0 3.1281e+16 0 0 0 
9860 0 91.758 1.29467e+18 5530.62 1258.09 615.718 149.692 134.538 -3.46717 7.4994e+17 9.73563e+14 0 2.7566e+17 2.24385e+17 0 4.37116e+16 0 0 0 
13956 0 61.918 8.73639e+17 7697.3 1250.65 608.192 355.122 157.867 -1.54092 5.07015e+17 6.63152e+14 0 1.81478e+17 1.55488e+17 0 2.89953e+16 0 0 0 
18052 0 85.757 1.21e+18 5884.81 1228.83 602.675 199.606 166.149 -1.35944 7.08218e+17 9.87673e+14 0 2.51038e+17 2.08738e+17 0 4.10166e+16 0 0 0 
84 1 33.782 1.19163e+17 17665 774.267 313.396 5459.97 245.096 -3.92033 9.32081e+16 2.46918e+13 0 1.05293e+16 1.02965e+16 0 5.10415e+15 0 0 0 
212 1 28.428 1.00277e+17 12348.2 571.796 242.729 6279.7 171.57 -2.95852 8.41039e+16 1.05822e+13 0 5.71439e+15 6.00717e+15 0 4.441e+15 0 0 0 
92 1 26.039 9.18501e+16 8195.07 442.888 213.155 6746.47 120.065 -0.506654 8.07564e+16 3.5274e+12 0 3.46391e+15 3.4498e+15 0 4.17645e+15 0 0 0 
220 1 24.524 8.6506e+16 5361.65 309.489 178.585 7023.4 85.5519 -0.523726 7.82519e+16 3.5274e+12 0 2.17288e+15 2.32103e+15 0 3.75668e+15 0 0 0 
588 1 37.077 2.61571e+17 21210.7 1125.11 484.095 2708.2 274.096 0.348779 1.67707e+17 1.19932e+14 0 4.35211e+16 4.06639e+16 0 9.55926e+15 0 0 0 
1612 1 28.814 2.03277e+17 22032.2 1059.51 460.112 3133.97 315.097 4.6326 1.33766e+17 9.87673e+13 0 3.12599e+16 2.99829e+16 0 8.16947e+15 0 0 0 
2124 1 34.231 2.41493e+17 20230.7 1247.42 504.896 2590.33 386.33 -0.970521 1.54641e+17 1.34041e+14 0 4.0544e+16 3.6939e+16 0 9.23474e+15 0 0 0 
716 1 24.361 1.71862e+17 22288.8 954.38 391.065 3984.83 297.682 -0.183929 1.19854e+17 1.34041e+14 0 2.3429e+16 2.15807e+16 0 6.86433e+15 0 0 0 
1228 1 27.281 1.92462e+17 21829.7 1100.98 444.558 3713.88 357.126 3.34936 1.32094e+17 1.7637e+14 0 2.77536e+16 2.48823e+16 0 7.5557e+15 0 0 0 
1740 1 19.637 1.38535e+17 21277 957.629 389.316 4576.23 287.025 -4.35923 1.0075e+17 2.11644e+13 0 1.65153e+16 1.53865e+16 0 5.86254e+15 0 0 0 
2252 1 20.942 1.47742e+17 21423.3 1046.13 388.391 4328.95 338.856 4.60895 1.06323e+17 6.34933e+13 0 1.82226e+16 1.6988e+16 0 6.14474e+15 0 0 0 
148 1 35.204 1.24179e+17 17244.4 935.322 343.603 5362.96 317.018 0.85744 9.56138e+16 1.7637e+13 0 1.19403e+16 1.14112e+16 0 5.19587e+15 0 0 0 
276 1 28.981 1.02228e+17 12016.7 726.215 259.804 6253.24 210.985 0.813792 8.48799e+16 3.88014e+13 0 6.48337e+15 6.28583e+15 0 4.53977e+15 0 0 0 
156 1 26.061 9.19277e+16 8193.13 468.097 210.451 6725.07 148.954 -2.43173 8.02449e+16 7.05481e+12 0 3.81312e+15 3.68614e+15 0 4.17645e+15 0 0 0 
284 1 24.69 8.70916e+16 5609.64 343.644 186.88 6990.77 105.897 0.387665 7.82378e+16 3.5274e+12 0 2.40216e+15 2.35983e+15 0 4.08826e+15 0 0 0 
780 1 29.493 2.08067e+17 20826 1222.9 487.615 3394.48 431.444 1.65611 1.40214e+17 1.48151e+14 0 3.17114e+16 2.78665e+16 0 8.12714e+15 0 0 0 
1804 1 22.48 1.58592e+17 20680.9 1087.73 429.834 4232.75 390.497 -1.57727 1.12623e+17 7.76029e+13 0 2.05013e+16 1.91044e+16 0 6.28583e+15 0 0 0 
5196 1 24.335 3.43357e+17 19217 1188.05 522.353 2142.07 304.982 3.65298 2.15919e+17 3.10412e+14 0 6.11934e+16 5.27276e+16 0 1.32066e+16 0 0 0 
9292 1 28.045 3.95704e+17 16848.5 1283.69 558.972 1747.57 340.317 -2.1014 2.40484e+17 2.11644e+14 0 7.4527e+16 6.68655e+16 0 1.36158e+16 0 0 0 
13388 1 21.146 2.98362e+17 19630.2 1208.91 560.675 2373.38 337.992 -2.98019 1.87376e+17 2.39863e+14 0 5.35319e+16 4.60538e+16 0 1.11607e+16 0 0 0 
17484 1 23.912 3.37389e+17 18475.7 1347.52 540.801 2138.29 365.531 1.00234 2.10205e+17 2.96302e+14 0 6.0629e+16 5.46889e+16 0 1.15699e+16 0 0 0 
5828 1 20.368 2.87385e+17 18898 1131.44 497.896 1929.82 218.653 3.23361 1.74635e+17 2.25754e+14 0 5.37859e+16 4.81138e+16 0 1.06245e+16 0 0 0 
9924 1 24.646 3.47746e+17 17369.9 1205.02 549.395 1707.74 230.051 -8.60461 2.10304e+17 2.39863e+14 0 6.48055e+16 6.03045e+16 0 1.20919e+16 0 0 0 
14020 1 19.122 2.69804e+17 19564.3 1038.82 509.489 2071.91 254.563 -4.42216 1.68088e+17 2.11644e+14 0 4.66323e+16 4.35564e+16 0 1.13159e+16 0 0 0 
18116 1 22.243 3.1384e+17 18019.3 1179.45 534.839 1842.23 268.724 6.85694 1.91016e+17 1.83425e+14 0 5.792e+16 5.32638e+16 0 1.1457e+16 0 0 0 
6340 1 29.042 4.09771e+17 15306.8 1315.53 551.128 1356.27 258.261 -2.41926 2.44506e+17 1.83425e+14 0 7.97334e+16 7.08585e+16 0 1.44906e+16 0 0 0 
10436 1 35.809 5.05251e+17 13335.1 1257.76 580.425 1092.16 280.819 -1.98186 2.98475e+17 3.10412e+14 0 1.01871e+17 8.72256e+16 0 1.73689e+16 0 0 0 
14532 1 26.12 3.68543e+17 16085.6 1239.61 546.502 1516.48 291.957 -4.06441 2.20942e+17 2.25754e+14 0 7.12536e+16 6.27878e+16 0 1.33336e+16 0 0 0 
18628 1 31.495 4.44382e+17 13916.2 1293.97 561.72 1200.5 314.095 5.30862 2.64442e+17 3.6685e+14 0 8.5857e+16 7.76734e+16 0 1.60426e+16 0 0 0 
5892 1 45.478 6.41677e+17 10562.6 1245.68 600.229 750.431 293.052 3.60776 3.7849e+17 3.95069e+14 0 1.28764e+17 1.10182e+17 0 2.38452e+16 0 0 0 
9988 1 59.201 8.35303e+17 8582.97 1297.73 604.205 546.585 298.268 3.94946 4.95939e+17 6.34933e+14 0 1.73379e+17 1.36369e+17 0 2.89811e+16 0 0 0 
14084 1 38.992 5.50162e+17 11917.2 1276.33 601.736 956.491 334.139 5.96184 3.28331e+17 3.24521e+14 0 1.09025e+17 9.25167e+16 0 1.99651e+16 0 0 0 
18180 1 48.817 6.88789e+17 9838.53 1286.84 593.841 723.847 353.888 -0.441364 4.12184e+17 5.36165e+14 0 1.4001e+17 1.13639e+17 0 2.24202e+16 0 0 0 
4748 1 33.179 4.68143e+17 14752.1 1308.47 593.78 1439.35 384.297 2.5309 2.84323e+17 4.37398e+14 0 8.94832e+16 7.79133e+16 0 1.59862e+16 0 0 0 
8844 1 39.604 5.58797e+17 12804.5 1324.6 583.779 1198.89 397.617 2.81043 3.36006e+17 3.6685e+14 0 1.12637e+17 9.10635e+16 0 1.87235e+16 0 0 0 
12940 1 26.84 3.78702e+17 16427.3 1310.95 579.111 1795.09 406.869 5.8927 2.33415e+17 3.10412e+14 0 6.98849e+16 6.15179e+16 0 1.35734e+16 0 0 0 
17036 1 30.913 4.36171e+17 14744 1419.96 585.712 1567.51 444.859 -0.214858 2.66234e+17 1.97535e+14 0 8.45307e+16 6.90383e+16 0 1.61696e+16 0 0 0 
5772 1 21.896 3.08944e+17 17989.5 1349.5 561.875 2162.27 440.276 7.32691 1.91566e+17 1.83425e+14 0 5.72145e+16 4.84806e+16 0 1.14993e+16 0 0 0 
9868 1 23.953 3.37968e+17 16617.2 1375.06 595.192 1982.68 475.19 7.75971 2.09598e+17 3.5274e+14 0 6.37755e+16 5.26712e+16 0 1.15699e+16 0 0 0 
13964 1 17.912 2.52731e+17 19462.1 1217.22 526.044 2545.02 444.52 -2.73607 1.61894e+17 1.83425e+14 0 4.39514e+16 3.78843e+16 0 8.81851e+15 0 0 0 
18060 1 19.06 2.68929e+17 18707.1 1371.49 548.098 2494.71 470.701 9.24763 1.72039e+17 2.96302e+14 0 4.58139e+16 4.07909e+16 0 9.98961e+15 0 0 0 
73 1 24.275 8.56277e+16 6075.02 200.332 155.985 7015.48 12.636 0.871385 7.77722e+16 0 0 1.77428e+15 2.29987e+15 0 3.78138e+15 0 0 0 
137 1 25.475 8.98606e+16 9020.53 248.942 174.695 6749.59 24.6765 0.325132 7.92572e+16 7.05481e+12 0 3.03004e+15 3.5521e+15 0 4.01419e+15 0 0 0 
201 1 23.912 8.43473e+16 5077.75 176.875 154.103 7098.51 14.7578 0.843061 7.70632e+16 3.5274e+12 0 1.48151e+15 1.91185e+15 0 3.8872e+15 0 0 0 
265 1 25.065 8.84144e+16 7713.55 233.019 167.827 6865.83 28.468 0.844947 7.87987e+16 3.5274e+12 0 2.53973e+15 3.17466e+15 0 3.89778e+15 0 0 0 
81 1 23.716 8.36559e+16 4382.69 178.8 150.76 7151.4 19.0642 -0.630073 7.69221e+16 7.05481e+12 0 1.37569e+15 1.66846e+15 0 3.68261e+15 0 0 0 
145 1 24.516 8.64778e+16 6088.54 232.85 158.869 7006.39 29.4064 -0.380012 7.80861e+16 3.5274e+12 0 2.00709e+15 2.4198e+15 0 3.96127e+15 0 0 0 
209 1 23.427 8.26365e+16 3449.66 172.976 145.466 7227.81 15.9632 -2.55996 7.64565e+16 0 0 1.00884e+15 1.3898e+15 0 3.78138e+15 0 0 0 
273 1 23.826 8.40439e+16 4762.79 207.644 154.659 7116.16 28.4271 -2.89155 7.70985e+16 0 0 1.37921e+15 1.82014e+15 0 3.7461e+15 0 0 0 
89 1 23.212 8.18781e+16 2863.85 171.529 145.441 7271.48 15.5194 -1.49214 7.62872e+16 0 0 8.1483e+14 1.11466e+15 0 3.66144e+15 0 0 0 
153 1 23.428 8.264e+16 3570.55 183.857 148.481 7212.24 22.4401 0.444487 7.62872e+16 3.5274e+12 0 9.98255e+14 1.43918e+15 0 3.91189e+15 0 0 0 
217 1 22.916 8.0834e+16 2108 157.673 144.929 7326.1 13.9015 2.67259 7.57616e+16 0 0 5.5733e+14 8.39522e+14 0 3.67555e+15 0 0 0 
281 1 23.208 8.1864e+16 2745.47 175.618 148.709 7276.54 21.8895 -0.115366 7.6139e+16 0 0 8.43049e+14 1.05469e+15 0 3.82723e+15 0 0 0 
74 1 27.684 9.76526e+16 12995.6 351.638 204.704 6324.55 44.9928 1.84986 8.26259e+16 2.46918e+13 0 4.94189e+15 5.81316e+15 0 4.24699e+15 0 0 0 
138 1 31.324 1.10492e+17 17572.3 507.549 243.086 5706.14 79.7961 1.98663 8.83015e+16 4.93837e+13 0 8.44813e+15 8.91375e+15 0 4.77963e+15 0 0 0 
202 1 26.362 9.29894e+16 10663.4 328.373 189.075 6572.76 49.0627 -1.95147 8.04671e+16 7.05481e+12 0 3.94011e+15 4.53977e+15 0 4.03535e+15 0 0 0 
266 1 28.712 1.01279e+17 14455.6 448.928 232.818 6127.35 82.3164 -0.600213 8.40933e+16 1.05822e+13 0 6.18707e+15 6.59977e+15 0 4.38809e+15 0 0 0 
82 1 25.343 8.9395e+16 8488.21 290.563 179.901 6784.24 48.1357 -1.88469 7.9222e+16 3.5274e+12 0 2.84661e+15 3.35456e+15 0 3.96833e+15 0 0 0 
146 1 26.951 9.50671e+16 11242.1 385.394 197.991 6496.37 74.9624 -0.440361 8.17723e+16 1.05822e+13 0 4.1835e+15 4.84665e+15 0 4.25405e+15 0 0 0 
210 1 24.74 8.7268e+16 6411.71 250.883 167.818 6969.33 43.8474 -0.00701506 7.86399e+16 1.41096e+13 0 2.04589e+15 2.52562e+15 0 4.0424e+15 0 0 0 
274 1 25.14 8.86789e+16 8120.56 311.081 180.162 6807.91 60.179 -1.50769 7.8654e+16 1.05822e+13 0 2.9348e+15 3.1147e+15 0 3.9648e+15 0 0 0 
90 1 23.992 8.46295e+16 4594.92 227.699 156.408 7124.15 32.2164 -0.428026 7.76064e+16 3.5274e+12 0 1.38274e+15 1.8025e+15 0 3.83429e+15 0 0 0 
154 1 24.256 8.55607e+16 5503.96 254.372 164.892 7038.68 47.7804 -0.717358 7.75747e+16 3.5274e+12 0 1.84483e+15 2.30339e+15 0 3.83429e+15 0 0 0 
218 1 23.366 8.24213e+16 3260.99 188.119 151.97 7234.2 29.5822 -2.62564 7.652e+16 0 0 9.45344e+14 1.34041e+15 0 3.61559e+15 0 0 0 
282 1 23.719 8.36665e+16 3863.13 220.039 155.331 7177.35 39.6801 0.739365 7.70173e+16 3.5274e+12 0 1.21343e+15 1.56969e+15 0 3.86251e+15 0 0 0 
91 1 25.066 8.84179e+16 6795.38 327.465 182.702 6912.95 71.0675 -0.393997 7.90421e+16 2.46918e+13 0 2.42333e+15 2.77959e+15 0 4.14823e+15 0 0 0 
219 1 23.911 8.43437e+16 4395.07 264.51 163.241 7127.68 51.7536 1.52006 7.72043e+16 0 0 1.58028e+15 1.75665e+15 0 3.80254e+15 0 0 0 
75 1 37.621 1.32704e+17 21540.2 715.823 315.767 4857.46 130.548 0.384135 9.91024e+16 5.99659e+13 0 1.38451e+16 1.43495e+16 0 5.34754e+15 0 0 0 
203 1 32.563 1.14863e+17 18094.5 576.084 279.606 5566.98 131.116 -1.8266 9.06225e+16 3.88014e+13 0 9.34409e+15 9.76738e+15 0 5.09004e+15 0 0 0 
83 1 28.75 1.01413e+17 14188.8 461.112 228.297 6129.71 117.683 -3.04968 8.3931e+16 2.46918e+13 0 6.21176e+15 6.67385e+15 0 4.57152e+15 0 0 0 
211 1 26.404 9.31376e+16 9692.42 392.426 197.202 6630.75 92.239 -1.91027 8.07141e+16 0 0 3.75316e+15 4.49744e+15 0 4.17292e+15 0 0 0 
1731 1 18.039 1.27262e+17 22515.3 720.775 324.8 4582.79 95.2119 -9.13005 9.21993e+16 5.64385e+13 0 1.44271e+16 1.47304e+16 0 5.84844e+15 0 0 0 
2243 1 21.153 1.4923e+17 23559.6 817.335 363.766 3934.53 118.059 1.74151 1.02683e+17 7.05481e+13 0 2.07835e+16 1.969e+16 0 6.00364e+15 0 0 0 
155 1 25.384 8.95396e+16 7615.37 383.572 188.506 6829.82 92.6971 3.58882 7.92784e+16 3.5274e+12 0 2.89247e+15 3.22405e+15 0 4.14117e+15 0 0 0 
283 1 24.149 8.51833e+16 4860.05 264.965 171.4 7082.59 68.6957 -2.46902 7.71796e+16 7.05481e+12 0 1.74606e+15 2.20815e+15 0 4.0424e+15 0 0 0 
267 1 37.976 1.33957e+17 21062.3 795.584 332.216 4799.58 215.901 3.7744 9.89719e+16 5.29111e+13 0 1.43953e+16 1.48363e+16 0 5.70028e+15 0 0 0 
147 1 31.583 1.11406e+17 16311.2 615.2 265.319 5792.53 172.119 -0.713345 8.97371e+16 1.41096e+13 0 8.19063e+15 8.56101e+15 0 4.90309e+15 0 0 0 
275 1 27.263 9.61676e+16 11420.2 482.927 219.079 6429.47 129.838 3.67659 8.21462e+16 2.82192e+13 0 4.92778e+15 4.91367e+15 0 4.15175e+15 0 0 0 
651 1 24.519 1.72977e+17 23272.6 890.736 379.995 3906.66 180.748 0.928398 1.20129e+17 5.64385e+13 0 2.29281e+16 2.29352e+16 0 6.92782e+15 0 0 0 
1163 1 29.936 2.11193e+17 22727.6 1032.3 438.16 3268.66 226.232 6.27834 1.39664e+17 1.41096e+14 0 3.22123e+16 3.14715e+16 0 7.70385e+15 0 0 0 
1675 1 20.877 1.47283e+17 22715.1 890.343 357.289 4237.58 203.745 -3.0503 1.04524e+17 4.93837e+13 0 1.90268e+16 1.77287e+16 0 5.95426e+15 0 0 0 
2187 1 24.275 1.71255e+17 22849.7 986.232 428.156 3645.25 251.985 2.54085 1.15882e+17 8.46577e+13 0 2.50657e+16 2.31609e+16 0 7.06186e+15 0 0 0 
1795 1 24.897 1.75644e+17 23249 996.195 418.215 3257.84 158.295 -2.44851 1.1541e+17 1.05822e+14 0 2.70975e+16 2.57218e+16 0 7.30878e+15 0 0 0 
2307 1 32.2 2.27165e+17 21324.8 1061.74 479.946 2546.55 202.597 1.68462 1.43177e+17 9.17125e+13 0 3.84487e+16 3.64804e+16 0 8.96666e+15 0 0 0 
1292 2 30.947 2.18325e+17 19789.2 1382.65 516.544 3403.39 484.029 1.86077 1.46027e+17 9.87673e+13 0 3.4364e+16 2.96937e+16 0 8.14125e+15 0 0 0 
2316 2 22.774 1.60666e+17 19745.6 1315.73 471.973 4262.88 431.543 -4.30655 1.13223e+17 9.87673e+13 0 2.16441e+16 1.90198e+16 0 6.6809e+15 0 0 0 
5252 2 181.561 2.56176e+18 7416.39 1566.74 687.19 521.736 60.3648 6.71715 1.48444e+18 1.66493e+15 0 5.4401e+17 4.5694e+17 0 7.46963e+16 0 0 0 
13444 2 162.098 2.28714e+18 5067.02 1330.9 637.55 188.432 118.418 -3.54179 1.34764e+18 1.96124e+15 0 4.81603e+17 3.84586e+17 0 7.13523e+16 0 0 0 
17540 2 342.892 4.83807e+18 2520.19 1103.53 593.267 17.6216 109.912 0.118447 3.02561e+18 3.78138e+15 0 9.67172e+17 6.92683e+17 0 1.48828e+17 0 0 0 
6276 2 140.72 1.9855e+18 4087 1222.15 618.283 70.3556 145.704 3.70316 1.17797e+18 1.45329e+15 0 4.14879e+17 3.23519e+17 0 6.76838e+16 0 0 0 
10372 2 241.965 3.41403e+18 2487.74 1057.11 578.483 0.0527485 128.075 1.3309 2.1243e+18 2.59617e+15 0 6.86884e+17 4.88404e+17 0 1.11847e+17 0 0 0 
14468 2 123.829 1.74718e+18 4285.7 1183.57 609.482 89.3975 163.454 3.22096 1.04139e+18 1.72137e+15 0 3.64973e+17 2.81713e+17 0 5.73838e+16 0 0 0 
18564 2 200.586 2.83019e+18 2794.25 1059.08 580.581 24.1729 122.807 -3.60461 1.74498e+18 1.42507e+15 0 5.85507e+17 4.09701e+17 0 8.85802e+16 0 0 0 
5260 2 47.793 6.74341e+17 11183.7 1385.73 620.815 1030.51 429.192 6.11522 4.09447e+17 3.10412e+14 0 1.31981e+17 1.09321e+17 0 2.32809e+16 0 0 0 
9356 2 56.138 7.92086e+17 9397.11 1394.37 623.34 871.477 450.479 -0.177757 4.8626e+17 6.34933e+14 0 1.55911e+17 1.22754e+17 0 2.65261e+16 0 0 0 
13452 2 34.832 4.91466e+17 13800.5 1399.38 606.213 1495.38 469.501 5.29526 3.04711e+17 3.24521e+14 0 9.20229e+16 7.67563e+16 0 1.76511e+16 0 0 0 
17548 2 38.103 5.37619e+17 12548.4 1479.28 612.526 1417.8 513.773 -7.41395 3.28613e+17 4.65617e+14 0 1.0561e+17 8.24284e+16 0 2.05013e+16 0 0 0 
6284 2 25.685 3.62405e+17 15978.1 1454.28 575.042 1958.54 507.794 0.24518 2.23383e+17 1.97535e+14 0 6.88831e+16 5.66219e+16 0 1.33195e+16 0 0 0 
10380 2 26.933 3.80014e+17 14629.9 1505.31 607.208 1834.63 559.954 4.99478 2.34248e+17 2.96302e+14 0 7.16063e+16 6.05444e+16 0 1.33195e+16 0 0 0 
14476 2 20.474 2.8888e+17 17811 1479.28 558.991 2434.83 507.906 -2.88903 1.85231e+17 1.26987e+14 0 4.94683e+16 4.4798e+16 0 9.25591e+15 0 0 0 
18572 2 20.768 2.93028e+17 17451.2 1453.05 597.973 2495.07 549.492 -1.7913 1.89266e+17 1.83425e+14 0 5.02867e+16 4.26816e+16 0 1.06104e+16 0 0 0 
5380 2 112.499 1.58732e+18 5741.8 1271.42 619.339 270.979 181.297 -0.310843 9.42607e+17 1.14288e+15 0 3.27258e+17 2.63864e+17 0 5.24454e+16 0 0 0 
9476 2 178.52 2.51885e+18 3666.21 1152.62 593.495 117.804 146.698 0.685808 1.553e+18 2.17288e+15 0 5.06225e+17 3.79139e+17 0 7.83084e+16 0 0 0 
13572 2 98.41 1.38853e+18 6038.02 1283.63 617.428 298.956 231.019 -2.281 8.23338e+17 7.76029e+14 0 2.88626e+17 2.28519e+17 0 4.72672e+16 0 0 0 
17668 2 153.231 2.16203e+18 4102.88 1146.34 605.905 148.295 198.027 4.23644 1.32271e+18 1.34041e+15 0 4.38724e+17 3.3238e+17 0 6.68796e+16 0 0 0 
6404 2 80.991 1.14275e+18 6595.95 1260.38 607.869 363.059 294.037 3.78461 6.88662e+17 9.17125e+14 0 2.33401e+17 1.8303e+17 0 3.67414e+16 0 0 0 
10500 2 119.544 1.68672e+18 4663.94 1183.64 601.792 205.326 265.25 0.528762 1.01936e+18 1.14288e+15 0 3.48239e+17 2.67123e+17 0 5.08511e+16 0 0 0 
14596 2 63.938 9.02141e+17 8255.18 1236.33 602.11 577.716 360.42 -0.900267 5.44815e+17 8.32467e+14 0 1.79827e+17 1.46613e+17 0 3.00535e+16 0 0 0 
18692 2 84.498 1.19223e+18 5991.87 1215.08 600.743 370.701 350.515 -1.56961 7.26546e+17 1.01589e+15 0 2.41796e+17 1.82776e+17 0 4.00995e+16 0 0 0 
8 3 9.022 1.59121e+16 8179.35 3472.43 923.007 4837.56 -179.453 -11.1979 9.65979e+15 1.23459e+13 0 3.06531e+15 2.62262e+15 0 5.52039e+14 0 0 0 
7 3 7.979 1.40726e+16 8857.88 3781.61 988.89 4397.62 -338.317 -8.74201 8.14654e+15 7.05481e+12 0 2.96478e+15 2.42685e+15 0 5.27347e+14 0 0 0 
80 3 24.745 8.72856e+16 4986.24 1467.26 440.534 6474.14 27.5285 -0.932807 6.57649e+16 4.58562e+13 0 9.66156e+15 8.59628e+15 0 3.21699e+15 0 0 0 
144 3 24.181 8.52961e+16 4752.78 1394.53 435.691 6545.1 16.4544 -6.96593 6.53381e+16 5.64385e+13 0 8.82556e+15 7.80262e+15 0 3.27343e+15 0 0 0 
208 3 28.314 9.98749e+16 4711.79 1334.69 407.268 6603.19 117.408 2.39606 7.83472e+16 2.82192e+13 0 9.77091e+15 8.0707e+15 0 3.65792e+15 0 0 0 
272 3 27.643 9.7508e+16 4362 1238.94 394.991 6665.72 104.06 -0.452422 7.69821e+16 3.88014e+13 0 8.71269e+15 7.99662e+15 0 3.77785e+15 0 0 0 
88 3 27.196 9.59313e+16 4015.41 1021.47 334.825 6836.61 141.551 -0.940641 7.98675e+16 3.17466e+13 0 6.58919e+15 5.48511e+15 0 3.95775e+15 0 0 0 
152 3 26.943 9.50388e+16 3672.06 991.409 324.134 6878.62 126.077 -2.06033 7.94336e+16 2.11644e+13 0 6.2682e+15 5.51686e+15 0 3.79901e+15 0 0 0 
216 3 25.748 9.08236e+16 3363.17 819.698 284.868 7010.76 130.523 -2.90693 7.90597e+16 1.41096e+13 0 4.20467e+15 3.56268e+15 0 3.98244e+15 0 0 0 
280 3 25.915 9.14127e+16 3105 796.46 276.798 7024.66 128.088 -0.935954 7.93842e+16 2.46918e+13 0 4.33871e+15 3.74963e+15 0 3.91542e+15 0 0 0 
96 3 24.94 8.79734e+16 2836.72 625.459 234.892 7121.08 119.471 0.78979 7.83683e+16 2.46918e+13 0 3.0124e+15 2.52209e+15 0 4.04593e+15 0 0 0 
160 3 25.067 8.84214e+16 2649 616.58 240.665 7127.01 119.33 3.27027 7.89257e+16 1.41096e+13 0 2.9736e+15 2.57853e+15 0 3.92953e+15 0 0 0 
224 3 24.205 8.53808e+16 2423.54 536.234 205.418 7200.7 112.501 1.10084 7.75888e+16 7.05481e+12 0 2.14466e+15 1.78134e+15 0 3.85898e+15 0 0 0 
288 3 24.124 8.50951e+16 2150.51 483.858 202.04 7228.08 103.008 -3.67123 7.76311e+16 7.05481e+12 0 1.93654e+15 1.66846e+15 0 3.85192e+15 0 0 0 
79 3 27.734 9.7829e+16 5703.1 1706.77 529.562 6274.45 43.3924 5.94368 7.00366e+16 4.58562e+13 0 1.25893e+16 1.14641e+16 0 3.69319e+15 0 0 0 
143 3 26.309 9.28025e+16 5346.64 1586.43 472.83 6381.59 28.076 3.75517 6.81494e+16 2.11644e+13 0 1.08503e+16 1.03388e+16 0 3.44275e+15 0 0 0 
207 3 29.997 1.05812e+17 5458.24 1488.13 441.818 6481.92 151.236 -5.24694 8.16276e+16 3.88014e+13 0 1.04623e+16 9.59807e+15 0 4.08473e+15 0 0 0 
271 3 29.163 1.0287e+17 4936.36 1366.88 438.039 6564.22 128.333 -3.03094 8.0125e+16 7.40755e+13 0 1.00284e+16 8.95608e+15 0 3.68614e+15 0 0 0 
87 3 27.995 9.87497e+16 4909.93 1132.48 363.316 6738.45 176.164 1.57136 8.17405e+16 7.05481e+12 0 7.1183e+15 5.89782e+15 0 3.98597e+15 0 0 0 
151 3 27.597 9.73458e+16 4318.05 1063.88 340.858 6805.01 155.014 0.687786 8.09116e+16 1.7637e+13 0 6.70559e+15 5.8308e+15 0 3.88014e+15 0 0 0 
215 3 26.363 9.29929e+16 4304.86 841.211 282.009 6918.31 167.211 -0.297118 8.02026e+16 7.05481e+12 0 4.6597e+15 3.97186e+15 0 4.15175e+15 0 0 0 
279 3 26.067 9.19488e+16 3718.99 814.85 266.557 6978.19 148.92 0.0352539 8.00333e+16 2.46918e+13 0 4.31754e+15 3.72494e+15 0 3.8484e+15 0 0 0 
95 3 25.135 8.86613e+16 3617.73 622.746 228.794 7065.95 148.012 -1.5583 7.88763e+16 1.7637e+13 0 3.07237e+15 2.77959e+15 0 3.91542e+15 0 0 0 
159 3 25.107 8.85625e+16 3197.46 618.457 240.405 7096.88 134.853 1.6032 7.89715e+16 3.88014e+13 0 2.93833e+15 2.68788e+15 0 3.926e+15 0 0 0 
223 3 24.248 8.55325e+16 2977.68 467.129 199.978 7167.61 120.039 2.59762 7.77475e+16 1.05822e+13 0 2.09175e+15 1.75312e+15 0 3.92953e+15 0 0 0 
287 3 24.376 8.5984e+16 2650.89 498.176 202.086 7185.06 117.301 4.05565 7.8259e+16 1.05822e+13 0 2.09175e+15 1.8272e+15 0 3.79549e+15 0 0 0 
142 3 30.362 1.07099e+17 6275.43 1851.95 546.075 6137.58 57.0927 0.949855 7.57122e+16 4.93837e+13 0 1.45999e+16 1.30867e+16 0 3.65086e+15 0 0 0 
270 3 31.122 1.0978e+17 6253.47 1584.46 452.944 6377.69 188.139 4.6335 8.40545e+16 1.41096e+13 0 1.15699e+16 9.90848e+15 0 4.23288e+15 0 0 0 
150 3 28.623 1.00965e+17 5974.39 1150.85 371.026 6628.54 216.329 0.405411 8.31092e+16 4.23288e+13 0 7.31936e+15 6.31405e+15 0 4.17997e+15 0 0 0 
278 3 26.76 9.43933e+16 5227.33 874.086 286.705 6835.32 193.882 2.35673 8.10174e+16 7.05481e+12 0 4.91367e+15 4.24699e+15 0 4.20819e+15 0 0 0 
158 3 25.47 8.9843e+16 4343.95 638.108 230.715 7001.13 155.664 3.21874 7.92996e+16 7.05481e+12 0 3.45333e+15 3.06179e+15 0 4.02124e+15 0 0 0 
286 3 24.153 8.51974e+16 3566.69 491.691 205.965 7120.38 132.667 1.98242 7.72713e+16 2.11644e+13 0 2.16583e+15 1.96476e+15 0 3.77432e+15 0 0 0 
5 3 162.674 2.78205e+18 2993.24 1016.94 570.541 112.012 187.952 0.888951 1.79159e+18 2.00093e+15 0 5.29068e+17 3.72807e+17 0 8.65874e+16 0 0 0 
5 3 2.105 1.49391e+16 8944.32 3100.25 980.197 2603.11 -685.522 -29.8448 8.12601e+15 7.09696e+12 0 3.43493e+15 2.62587e+15 0 7.4518e+14 0 0 0 
149 3 31.676 1.11734e+17 10532.1 1222.51 371.981 6139.6 306.392 0.606827 8.91057e+16 1.7637e+13 0 9.64039e+15 8.30704e+15 0 4.66323e+15 0 0 0 
277 3 27.829 9.81641e+16 8426.02 833.517 289.703 6546.79 233.792 -3.30496 8.27882e+16 1.05822e+13 0 5.91193e+15 5.20998e+15 0 4.24347e+15 0 0 0 
157 3 25.944 9.1515e+16 6408.62 648.549 236.942 6831.78 173.903 2.95615 8.02343e+16 1.41096e+13 0 4.03182e+15 3.37573e+15 0 3.85898e+15 0 0 0 
285 3 24.7 8.71269e+16 4627.72 429.984 197.889 7048.79 124.182 -0.0130127 7.84495e+16 1.05822e+13 0 2.47624e+15 2.28223e+15 0 3.90836e+15 0 0 0 