ITEM: TIMESTEP
14000
ITEM: NUMBER OF CELLS
240
ITEM: BOX BOUNDS oo ao pp
-10 10
0 10
-0.5 0.5
ITEM: CELLS id proc f_avg_n f_avg_nrho f_avg_temp_tra f_avg_temp_rot f_avg_temp_vib f_avg_vel[1] f_avg_vel[2] f_avg_vel[3] f_avg_nrho_CO2 f_avg_nrho_O2 f_avg_nrho_C2 f_avg_nrho_CO f_avg_nrho_O f_avg_nrho_C f_avg_nrho_N2 f_avg_nrho_N f_avg_nrho_NO f_avg_nrho_CN 
65 0 24.75 8.73032e+16 5918.87 168.204 149.929 7029.76 6.66669 -3.06955 7.8908e+16 0 0 2.04589e+15 2.32809e+15 0 4.02124e+15 0 0 0 
129 0 26.37 9.30176e+16 10093.5 259.682 180.007 6643.96 18.5163 0.497988 8.10245e+16 0 0 3.73905e+15 3.77432e+15 0 4.4798e+15 0 0 0 
193 0 24.46 8.62803e+16 6044.47 195.347 150.106 7017.92 11.6031 -3.44249 7.78145e+16 0 0 1.41096e+15 3.20994e+15 0 3.84487e+15 0 0 0 
257 0 25.93 9.14656e+16 9281.04 334.078 171.521 6710.99 11.1102 1.217 8.00368e+16 3.5274e+13 0 3.59795e+15 3.63323e+15 0 4.16234e+15 0 0 0 
66 0 29.84 1.05258e+17 13901.8 369.825 200.112 6230.38 27.0985 6.70253 8.7021e+16 0 0 5.85549e+15 7.12536e+15 0 5.25583e+15 0 0 0 
130 0 34.22 1.20708e+17 18740.5 425.677 252.875 5542.58 32.2302 12.1599 9.34409e+16 0 0 1.01236e+16 1.11819e+16 0 5.96131e+15 0 0 0 
194 0 28.77 1.01483e+17 14132.1 400.51 201.47 6198.47 25.0799 -1.64816 8.46577e+16 7.05481e+13 0 5.29111e+15 6.80789e+15 0 4.65617e+15 0 0 0 
258 0 32.87 1.15946e+17 19538.5 553.28 262.011 5385.7 71.112 -9.71671 8.99135e+16 0 0 1.06175e+16 1.07586e+16 0 4.65617e+15 0 0 0 
579 0 29.19 2.0593e+17 16354 681.65 245.085 5857.42 73.7091 -21.6617 1.69104e+17 0 0 1.31925e+16 1.38274e+16 0 9.80618e+15 0 0 0 
1091 0 32.83 2.31609e+17 18021.1 805.736 311.879 5552.09 67.3437 -10.1905 1.81732e+17 0 0 2.05295e+16 2.00357e+16 0 9.31235e+15 0 0 0 
1603 0 18.42 1.2995e+17 23897 777.318 306.329 3897.23 20.5913 -11.8551 9.21358e+16 7.05481e+13 0 1.43213e+16 1.78487e+16 0 5.5733e+15 0 0 0 
2115 0 22.21 1.56687e+17 22897.8 1168.72 451.601 3419.03 32.0409 52.1814 1.01378e+17 7.05481e+13 0 2.4198e+16 2.42685e+16 0 6.77262e+15 0 0 0 
707 0 21.2 1.49562e+17 21917.6 635.177 325.216 4881.06 53.7228 -19.5724 1.13018e+17 7.05481e+13 0 1.48856e+16 1.53089e+16 0 6.27878e+15 0 0 0 
1219 0 25.52 1.80039e+17 23208.9 833.311 338.096 4244.66 71.4845 2.16142 1.27692e+17 0 0 2.46213e+16 2.2787e+16 0 4.93837e+15 0 0 0 
643 0 36.78 2.59476e+17 21784.5 1222.49 334.853 4604.68 36.7292 15.2744 1.89139e+17 7.05481e+13 0 2.86425e+16 3.32987e+16 0 8.32467e+15 0 0 0 
1667 0 27.65 1.95065e+17 21784.3 860.98 433.969 2521.58 84.3381 -14.6634 1.21907e+17 7.05481e+13 0 3.06884e+16 3.3722e+16 0 8.67741e+15 0 0 0 
2179 0 37.37 2.63638e+17 19059.3 932.448 509.454 1870.08 94.6646 12.4267 1.60779e+17 1.41096e+14 0 4.45158e+16 4.67028e+16 0 1.14993e+16 0 0 0 
771 0 29.01 2.0466e+17 23301 950.262 369.788 3498.02 123.331 9.78357 1.35805e+17 7.05481e+13 0 2.76548e+16 3.25227e+16 0 8.60686e+15 0 0 0 
1283 0 38.95 2.74785e+17 21568.5 1055.63 491.955 2583.77 130.827 6.83598 1.73407e+17 2.11644e+14 0 4.6985e+16 4.49391e+16 0 9.2418e+15 0 0 0 
5251 0 28.3 3.99302e+17 17752.9 849.568 311.837 5378.02 47.9105 15.272 2.86848e+17 1.41096e+14 0 3.64028e+16 5.16412e+16 0 2.42685e+16 0 0 0 
9347 0 29.02 4.09461e+17 19349.6 1429.65 447.497 4949.69 58.0138 -6.08216 2.94327e+17 0 0 5.7285e+16 4.48686e+16 0 1.29808e+16 0 0 0 
13443 0 20.01 2.82333e+17 23122.7 1106.43 394.455 3712.6 60.2397 -15.9048 1.85965e+17 1.41096e+14 0 4.50097e+16 4.12001e+16 0 1.00178e+16 0 0 0 
17539 0 20.69 2.91928e+17 21829.2 1312.31 463.372 2889.21 50.0219 -27.4782 1.85683e+17 2.82192e+14 0 4.30343e+16 4.78316e+16 0 1.50973e+16 0 0 0 
4676 0 34.62 4.88475e+17 21583.5 1237.73 516.528 4297.65 26.0853 13.782 3.43851e+17 4.23288e+14 0 6.64563e+16 6.18001e+16 0 1.59439e+16 0 0 0 
8772 0 39.95 5.63679e+17 21975.9 1192.48 451.221 3944.58 71.0244 3.48529 3.74328e+17 2.82192e+14 0 8.55043e+16 8.47988e+16 0 1.87658e+16 0 0 0 
12868 0 26.67 3.76303e+17 21178.6 1093.76 483.639 2492.22 64.3616 17.048 2.37183e+17 2.82192e+14 0 6.29289e+16 6.1659e+16 0 1.42507e+16 0 0 0 
16964 0 33.81 4.77046e+17 18809.6 1363.89 547.499 2049.24 63.0829 -16.2208 2.84027e+17 2.82192e+14 0 8.76207e+16 9.21358e+16 0 1.29808e+16 0 0 0 
5188 0 46.04 6.49607e+17 21125.6 1535.68 579.295 3333.43 9.94872 -22.4702 4.16939e+17 2.82192e+14 0 1.10619e+17 9.93317e+16 0 2.24343e+16 0 0 0 
9284 0 55.03 7.76452e+17 19138.1 1531.2 661.84 2329.8 39.2314 12.759 4.64771e+17 4.23288e+14 0 1.50267e+17 1.41519e+17 0 1.94713e+16 0 0 0 
13380 0 38.67 5.45619e+17 16345.7 1410.3 633.779 1580.84 84.4556 2.24359 3.21417e+17 7.05481e+14 0 1.02436e+17 1.03423e+17 0 1.7637e+16 0 0 0 
17476 0 49.84 7.03223e+17 13491.3 1577.16 627.34 1172.71 59.1951 -10.4234 3.96057e+17 7.05481e+14 0 1.43213e+17 1.34747e+17 0 2.85014e+16 0 0 0 
5700 0 24.69 3.48366e+17 16723.5 1469.85 531.237 1538.83 63.9689 -27.5134 2.03602e+17 1.41096e+14 0 6.65974e+16 6.77262e+16 0 1.03e+16 0 0 0 
9796 0 29.53 4.16657e+17 14452 1440.45 588.639 1139.47 91.3858 25.4679 2.50022e+17 0 0 7.46399e+16 7.73207e+16 0 1.4674e+16 0 0 0 
13892 0 24.42 3.44557e+17 15381 1061.32 525.971 1272.26 110.656 -1.10507 1.9951e+17 1.41096e+14 0 6.6033e+16 6.34933e+16 0 1.53795e+16 0 0 0 
17988 0 27.77 3.91824e+17 14357.5 1154.67 585.472 1112.82 132.06 -6.52324 2.28435e+17 1.41096e+14 0 7.29467e+16 7.56275e+16 0 1.4674e+16 0 0 0 
6212 0 36.4 5.1359e+17 11816.6 1301.32 600.452 816.365 111.498 2.327 2.98136e+17 5.64385e+14 0 1.00178e+17 9.59454e+16 0 1.87658e+16 0 0 0 
10308 0 48.25 6.80789e+17 8598.12 1315.13 695.652 424.479 111.274 -12.3178 3.85757e+17 2.82192e+14 0 1.40814e+17 1.29385e+17 0 2.45507e+16 0 0 0 
14404 0 37.68 5.3165e+17 12232.6 1029.14 584.439 829.929 159.435 -16.208 3.11399e+17 5.64385e+14 0 1.03e+17 9.45344e+16 0 2.21521e+16 0 0 0 
18500 0 47.2 6.65974e+17 9370.81 1179.37 586.475 515.099 158.956 -3.40883 3.8096e+17 0 0 1.32771e+17 1.28256e+17 0 2.39863e+16 0 0 0 
4804 0 25.62 3.61488e+17 19164.2 1383.9 603.434 2183.26 133.866 -4.73167 2.10515e+17 1.41096e+14 0 6.37755e+16 6.82905e+16 0 1.87658e+16 0 0 0 
8900 0 30.55 4.31049e+17 17197.5 1269.52 569.89 1673.24 165.338 -11.541 2.53973e+17 1.41096e+14 0 8.32467e+16 7.81673e+16 0 1.55206e+16 0 0 0 
12996 0 22.83 3.22123e+17 18000.2 1388.72 569.717 1885.53 189.83 -46.2042 1.96406e+17 0 0 6.08124e+16 5.34754e+16 0 1.14288e+16 0 0 0 
17092 0 26.12 3.68543e+17 18280.7 1411.41 562.052 1897.54 185.389 27.6031 2.16724e+17 2.82192e+14 0 7.09714e+16 6.58919e+16 0 1.4674e+16 0 0 0 
5316 0 36.36 5.13026e+17 15816.6 1306.1 519.893 1409.8 174.949 -7.82947 3.13516e+17 1.41096e+14 0 9.76385e+16 8.59276e+16 0 1.58028e+16 0 0 0 
9412 0 45.18 6.37472e+17 13333.1 1176.93 559.983 1075.9 196.08 9.82583 3.75316e+17 0 0 1.22471e+17 1.14852e+17 0 2.48329e+16 0 0 0 
13508 0 33.93 4.78739e+17 16190.4 1141.7 545.84 1572.88 209.447 -22.9072 2.82616e+17 4.23288e+14 0 8.35289e+16 9.31235e+16 0 1.9048e+16 0 0 0 
17604 0 41.22 5.81598e+17 13311.9 1140.15 591.349 1068.82 230.735 4.89327 3.4752e+17 5.64385e+14 0 1.12454e+17 1.02013e+17 0 1.9048e+16 0 0 0 
4868 0 57.75 8.1483e+17 9794.87 1360.5 615.537 627.927 194.968 5.66034 4.65758e+17 1.41096e+14 0 1.7764e+17 1.42225e+17 0 2.90658e+16 0 0 0 
8964 0 77.8 1.09773e+18 6798.29 1230.42 640.493 333.825 206.693 -0.259816 6.25761e+17 8.46577e+14 0 2.39722e+17 1.89069e+17 0 4.23288e+16 0 0 0 
13060 0 51.68 7.29185e+17 10731.5 1327.99 571.037 760.998 236.466 -1.342 4.31049e+17 1.41096e+14 0 1.40955e+17 1.30937e+17 0 2.61028e+16 0 0 0 
17156 0 66.68 9.40829e+17 8344.39 1237.63 635.206 512.271 254.228 -30.3508 5.53661e+17 1.41096e+14 0 1.99651e+17 1.57181e+17 0 3.01946e+16 0 0 0 
4740 0 72.03 1.01632e+18 15337.9 1536.42 597.852 1634.67 33.1525 14.8821 5.71298e+17 5.64385e+14 0 2.21521e+17 1.99087e+17 0 2.38452e+16 0 0 0 
8836 0 109.57 1.54599e+18 12516.2 1954.69 672.883 1231.85 51.1911 9.65334 8.80722e+17 2.39863e+15 0 3.3341e+17 2.85296e+17 0 4.41631e+16 0 0 0 
12932 0 68.37 9.64674e+17 11140.6 1328.73 647.865 814.582 85.8868 -0.151099 5.5098e+17 7.05481e+14 0 1.93443e+17 1.89774e+17 0 2.97713e+16 0 0 0 
17028 0 98.64 1.39177e+18 8401.97 1508.82 644.011 534.201 103.007 -13.7417 7.93807e+17 1.83425e+15 0 2.9348e+17 2.57077e+17 0 4.55741e+16 0 0 0 
5764 0 63 8.88906e+17 7666.41 1282.97 609.744 359.535 142.163 -0.725222 4.97646e+17 8.46577e+14 0 1.90762e+17 1.70162e+17 0 2.94891e+16 0 0 0 
9860 0 90.84 1.28172e+18 5345.24 1347.97 624.692 129.975 141.074 3.55728 7.27633e+17 7.05481e+14 0 2.76125e+17 2.31257e+17 0 4.59973e+16 0 0 0 
13956 0 61.78 8.71692e+17 7984.37 1262.65 622.498 380.309 137.647 1.44635 5.05971e+17 1.12877e+15 0 1.74254e+17 1.61837e+17 0 2.85014e+16 0 0 0 
18052 0 85.36 1.2044e+18 6299.93 1182.32 627.783 252.394 149.816 2.874 7.17897e+17 8.46577e+14 0 2.41698e+17 2.07694e+17 0 3.62617e+16 0 0 0 
84 1 33.75 1.1905e+17 17810.7 842.889 349.331 5408.71 242.853 2.05895 9.2806e+16 0 0 1.05822e+16 1.07233e+16 0 4.93837e+15 0 0 0 
212 1 29.21 1.03035e+17 12538.6 604.927 245.588 6232.82 179.859 -0.220718 8.59276e+16 0 0 6.31405e+15 6.41987e+15 0 4.37398e+15 0 0 0 
92 1 25.89 9.13245e+16 8496.84 481.854 218.862 6687.8 139.1 0.296833 7.95782e+16 0 0 3.98597e+15 4.12706e+15 0 3.63323e+15 0 0 0 
220 1 23.86 8.41639e+16 5581.67 291.586 176.094 7009.04 80.6781 -3.34097 7.62625e+16 0 0 1.83425e+15 1.86952e+15 0 4.19761e+15 0 0 0 
588 1 36.18 2.55243e+17 21412.4 1195.38 461.423 2752.82 289.698 18.4192 1.64024e+17 1.41096e+14 0 4.17645e+16 3.91542e+16 0 1.01589e+16 0 0 0 
1612 1 28.53 2.01274e+17 22258.4 940.917 424.764 3113.29 307.3 12.7194 1.33054e+17 7.05481e+13 0 3.23816e+16 2.73021e+16 0 8.46577e+15 0 0 0 
2124 1 34.78 2.45366e+17 20216.8 1275.62 501.161 2498.69 410.508 -9.81076 1.5838e+17 7.05481e+13 0 4.13412e+16 3.60501e+16 0 9.52399e+15 0 0 0 
716 1 24.06 1.69739e+17 22438.2 970.804 383.583 3932.59 298.826 -13.3918 1.17815e+17 0 0 2.55384e+16 2.06e+16 0 5.78494e+15 0 0 0 
1228 1 26.95 1.90127e+17 21960.2 1069.18 489.311 3701.45 354.704 20.7738 1.31925e+17 2.11644e+14 0 2.80781e+16 2.29987e+16 0 6.91371e+15 0 0 0 
1740 1 19.67 1.38768e+17 21532.3 943.863 374.398 4613.37 283.452 -12.8364 1.03e+17 0 0 1.6085e+16 1.40391e+16 0 5.64385e+15 0 0 0 
2252 1 21.45 1.51326e+17 21762.9 982.894 383.772 4229.54 335.104 -10.9352 1.07163e+17 0 0 1.96124e+16 1.80603e+16 0 6.49042e+15 0 0 0 
148 1 35.75 1.26105e+17 17009.5 943.29 346.359 5372.56 314.276 0.856813 9.64745e+16 7.05481e+13 0 1.28397e+16 1.14641e+16 0 5.25583e+15 0 0 0 
276 1 28.68 1.01166e+17 11989.9 785.801 267.434 6285.38 205.773 -5.30604 8.43755e+16 0 0 7.01953e+15 5.39693e+15 0 4.37398e+15 0 0 0 
156 1 26.01 9.17478e+16 7672.4 517.336 216.553 6765.27 132.654 7.35177 8.06364e+16 0 0 3.31576e+15 3.13939e+15 0 4.65617e+15 0 0 0 
284 1 24.91 8.78676e+16 5847.03 327.344 173.989 6985.19 113.135 -6.74079 7.98604e+16 0 0 2.36336e+15 1.79898e+15 0 3.84487e+15 0 0 0 
780 1 28.81 2.03249e+17 20535.6 1247.28 529.944 3303.29 439.767 -4.84111 1.36934e+17 1.41096e+14 0 2.97713e+16 2.82898e+16 0 8.11303e+15 0 0 0 
1804 1 22.49 1.58663e+17 20595.1 984.925 442.137 4357.62 365.276 -3.8607 1.15205e+17 0 0 1.9824e+16 1.59439e+16 0 7.68974e+15 0 0 0 
5196 1 25.78 3.63746e+17 19927.1 1224.47 553.457 2397.81 266.825 4.53847 2.30128e+17 5.64385e+14 0 6.49042e+16 5.60152e+16 0 1.21343e+16 0 0 0 
9292 1 28.17 3.97468e+17 17318.1 983.155 531.588 1794.38 332.352 -8.03515 2.40569e+17 1.41096e+14 0 7.37933e+16 6.56097e+16 0 1.73548e+16 0 0 0 
13388 1 21.1 2.97713e+17 19611.3 995.324 541.893 2279.58 351.557 -3.62189 1.87376e+17 1.41096e+14 0 5.36165e+16 4.72672e+16 0 9.31235e+15 0 0 0 
17484 1 23.11 3.26073e+17 18613 1188.87 469.866 2025.65 369.121 8.88207 2.00639e+17 5.64385e+14 0 5.64385e+16 5.53097e+16 0 1.31219e+16 0 0 0 
5828 1 19.78 2.79088e+17 19539.8 1006.69 469.549 1970.02 229.04 15.4108 1.74536e+17 2.82192e+14 0 4.85371e+16 4.37398e+16 0 1.19932e+16 0 0 0 
9924 1 25.29 3.56832e+17 17007.6 1325.27 543.873 1637.19 222.869 -10.4121 2.15736e+17 0 0 6.58919e+16 6.26467e+16 0 1.25576e+16 0 0 0 
14020 1 18.61 2.6258e+17 20036.4 949.171 453.364 2149.73 229.357 11.19 1.69739e+17 2.82192e+14 0 4.03535e+16 4.30343e+16 0 9.17125e+15 0 0 0 
18116 1 20.58 2.90376e+17 17887.2 1251.09 586.047 1799.69 266.217 2.37055 1.77358e+17 4.23288e+14 0 4.96658e+16 5.07946e+16 0 1.21343e+16 0 0 0 
6340 1 28.96 4.08614e+17 14029.1 1411.21 547.324 1199.65 276.508 13.3368 2.35913e+17 5.64385e+14 0 8.24001e+16 7.64741e+16 0 1.3263e+16 0 0 0 
10436 1 36.16 5.10204e+17 13379.2 1305.32 551.491 1100.11 293.481 8.6011 3.02651e+17 2.82192e+14 0 1.04129e+17 8.70563e+16 0 1.6085e+16 0 0 0 
14532 1 26.07 3.67838e+17 15499.3 1230.16 580.212 1449.15 284.324 -9.39468 2.14889e+17 0 0 7.42166e+16 6.77262e+16 0 1.10055e+16 0 0 0 
18628 1 31.29 4.4149e+17 13101.2 1290.11 602.701 1070.35 324.024 -11.2424 2.61169e+17 1.41096e+14 0 8.33878e+16 7.91549e+16 0 1.7637e+16 0 0 0 
5892 1 45.43 6.41e+17 10621.5 1092.63 608.374 783.855 278.152 -14.3446 3.77291e+17 4.23288e+14 0 1.2868e+17 1.08785e+17 0 2.58206e+16 0 0 0 
9988 1 58.85 8.30351e+17 9030.99 1368.81 615.79 628.589 303.265 -3.51776 4.96658e+17 9.87673e+14 0 1.74254e+17 1.32489e+17 0 2.59617e+16 0 0 0 
14084 1 39.08 5.51404e+17 12805 1199.4 582.425 1074.47 312.554 -5.11447 3.29036e+17 2.82192e+14 0 1.03e+17 9.89084e+16 0 2.01767e+16 0 0 0 
18180 1 51.11 7.21142e+17 9753.48 1144.26 597.949 708.726 358.815 -2.01118 4.32883e+17 1.41096e+15 0 1.43354e+17 1.20637e+17 0 2.28576e+16 0 0 0 
4748 1 33.48 4.7239e+17 15694.2 1433.77 581.403 1604.42 361.728 -20.094 2.91222e+17 4.23288e+14 0 9.07248e+16 7.32289e+16 0 1.67904e+16 0 0 0 
8844 1 40.42 5.70311e+17 11945.8 1375.71 597.951 1055.55 401.425 -10.765 3.49354e+17 1.41096e+15 0 1.09773e+17 9.21358e+16 0 1.7637e+16 0 0 0 
12940 1 27.98 3.94787e+17 17634.4 1254.24 551.851 2009.67 386.46 23.3782 2.55666e+17 4.23288e+14 0 6.65974e+16 5.82727e+16 0 1.38274e+16 0 0 0 
17036 1 30.85 4.35282e+17 14714.4 1355.58 562.811 1480.11 440.478 -7.87488 2.72457e+17 1.41096e+14 0 8.09892e+16 6.82905e+16 0 1.34041e+16 0 0 0 
5772 1 21.4 3.01946e+17 16953.6 1423.76 542.709 1975.69 444.381 -15.1243 1.82578e+17 4.23288e+14 0 5.47453e+16 5.277e+16 0 1.14288e+16 0 0 0 
9868 1 23.7 3.34398e+17 16568.4 1240.91 614.224 1924.33 474.015 0.674657 2.13478e+17 5.64385e+14 0 6.20823e+16 5.06535e+16 0 7.61919e+15 0 0 0 
13964 1 16.85 2.37747e+17 19101.6 1075.69 528.218 2254.03 478.222 -7.27795 1.53936e+17 1.41096e+14 0 4.27521e+16 3.25932e+16 0 8.32467e+15 0 0 0 
18060 1 18.91 2.66813e+17 18644.3 1268.32 573.19 2500.61 471.502 16.8256 1.75524e+17 1.83425e+15 0 4.23288e+16 3.82371e+16 0 8.88906e+15 0 0 0 
73 1 24.5 8.64214e+16 6534.44 201.153 158.982 6976.08 16.0512 10.7186 7.80967e+16 0 0 2.22226e+15 2.15172e+15 0 3.95069e+15 0 0 0 
137 1 25.58 9.0231e+16 9241.88 240.716 185.766 6726.15 26.755 1.33292 8.01426e+16 0 0 3.20994e+15 3.28049e+15 0 3.59795e+15 0 0 0 
201 1 23.32 8.22591e+16 5622.57 183.004 172.942 7056.56 14.4433 0.540479 7.47457e+16 0 0 1.83425e+15 2.08117e+15 0 3.59795e+15 0 0 0 
265 1 26.33 9.28765e+16 7676.4 268.757 162.35 6862.84 25.8033 -0.431515 8.25412e+16 0 0 2.8572e+15 3.13939e+15 0 4.33871e+15 0 0 0 
81 1 23.69 8.35642e+16 4878.79 173.842 157.889 7106.32 25.3559 -3.21901 7.62625e+16 3.5274e+13 0 1.48151e+15 1.79898e+15 0 3.98597e+15 0 0 0 
145 1 24.83 8.75854e+16 6320.41 218.339 152.308 6992.09 37.3519 4.56492 7.94019e+16 3.5274e+13 0 2.08117e+15 2.22226e+15 0 3.84487e+15 0 0 0 
209 1 23.48 8.28234e+16 4118.12 164.6 150.545 7174.29 19.0603 1.93057 7.61919e+16 0 0 1.26987e+15 1.44624e+15 0 3.91542e+15 0 0 0 
273 1 24.31 8.57512e+16 4652.4 231.007 150.137 7124.27 23.9167 -4.08101 7.9296e+16 0 0 9.87673e+14 1.48151e+15 0 3.98597e+15 0 0 0 
89 1 23.11 8.15183e+16 2905.1 157.358 143.164 7274.36 16.1405 -4.8916 7.63683e+16 0 0 8.46577e+14 7.40755e+14 0 3.56268e+15 0 0 0 
153 1 23.44 8.26823e+16 3812.1 205.511 152.312 7197.73 30.311 1.58347 7.64741e+16 0 0 1.02295e+15 1.62261e+15 0 3.56268e+15 0 0 0 
217 1 23.25 8.20121e+16 2460.99 158.878 154.483 7297.7 21.2807 -1.91026 7.70738e+16 0 0 5.29111e+14 1.05822e+15 0 3.35103e+15 0 0 0 
281 1 23.37 8.24354e+16 3127.13 219.071 146.141 7244.47 22.2056 0.449904 7.60155e+16 0 0 1.12877e+15 1.26987e+15 0 4.02124e+15 0 0 0 
74 1 27.22 9.60159e+16 13648.4 338.55 192.95 6271.15 46.937 2.11412 8.01426e+16 3.5274e+13 0 5.71439e+15 5.50275e+15 0 4.6209e+15 0 0 0 
138 1 31.59 1.11431e+17 17864.1 463.524 246.494 5671.25 85.2907 -0.684938 8.97371e+16 7.05481e+13 0 8.32467e+15 8.81851e+15 0 4.4798e+15 0 0 0 
202 1 26.26 9.26296e+16 11642.1 305.428 195.164 6474.07 47.3782 -5.58185 7.95782e+16 3.5274e+13 0 4.44453e+15 4.69145e+15 0 3.88014e+15 0 0 0 
266 1 28.84 1.0173e+17 14403.5 497.508 217.995 6130.88 86.0425 -4.50329 8.51515e+16 3.5274e+13 0 6.20823e+15 5.89076e+15 0 4.44453e+15 0 0 0 
82 1 25.43 8.97019e+16 9148.93 280.685 175.566 6731.34 44.2024 -0.453505 7.95782e+16 0 0 2.96302e+15 2.89247e+15 0 4.26816e+15 0 0 0 
146 1 27.6 9.73563e+16 11908.5 407.254 206.709 6407.97 83.444 -2.57511 8.26823e+16 0 0 4.72672e+15 5.71439e+15 0 4.23288e+15 0 0 0 
210 1 24.84 8.76207e+16 6959.96 215.379 166.425 6924.58 44.0962 -0.707134 7.91902e+16 0 0 1.72843e+15 3.06884e+15 0 3.63323e+15 0 0 0 
274 1 25.26 8.91022e+16 8094.91 341.862 186.225 6803.95 56.7061 5.9264 7.84142e+16 0 0 3.49213e+15 3.28049e+15 0 3.91542e+15 0 0 0 
90 1 24.27 8.56101e+16 4640.11 204.662 153.194 7119.36 27.2544 3.17408 7.77793e+16 0 0 1.48151e+15 2.25754e+15 0 4.09179e+15 0 0 0 
154 1 24.01 8.4693e+16 5259.96 271.298 165.597 7063.36 51.3626 -7.89472 7.74971e+16 0 0 1.48151e+15 2.01062e+15 0 3.70377e+15 0 0 0 
218 1 23.5 8.2894e+16 2910.09 184.509 153.191 7255.76 32.7496 -1.92826 7.67563e+16 0 0 7.76029e+14 1.34041e+15 0 4.02124e+15 0 0 0 
282 1 23.35 8.23649e+16 4151.47 235.053 157.387 7149.92 37.3327 1.25067 7.62272e+16 0 0 1.30514e+15 1.51678e+15 0 3.31576e+15 0 0 0 
91 1 25.21 8.89258e+16 7054.26 349.157 177.72 6886.66 68.3975 9.319 7.94019e+16 3.5274e+13 0 2.32809e+15 2.64555e+15 0 4.51508e+15 0 0 0 
219 1 24.09 8.49752e+16 4634.41 233.637 159.274 7108.11 54.6565 0.725324 7.84495e+16 0 0 1.48151e+15 1.65788e+15 0 3.38631e+15 0 0 0 
75 1 38.3 1.351e+17 21731.1 726.654 302.139 4799.13 130.56 2.55809 9.95786e+16 7.05481e+13 0 1.50973e+16 1.5062e+16 0 5.29111e+15 0 0 0 
203 1 33.03 1.1651e+17 18171.5 538.651 271.855 5550.23 133.807 8.8571 9.06895e+16 0 0 9.84146e+15 1.02295e+16 0 5.74967e+15 0 0 0 
83 1 28.48 1.0046e+17 14574.6 460.55 217.248 6093.27 124.896 -4.10752 8.43402e+16 0 0 5.4322e+15 6.5257e+15 0 4.16234e+15 0 0 0 
211 1 26.2 9.2418e+16 9613.78 331.028 180.916 6655.03 83.3023 -2.73644 8.14125e+16 0 0 3.35103e+15 3.6685e+15 0 3.98597e+15 0 0 0 
1731 1 18.07 1.2748e+17 22134.5 758.006 335.77 4605.54 68.6967 -30.1074 9.15714e+16 7.05481e+13 0 1.46035e+16 1.42507e+16 0 6.98426e+15 0 0 0 
2243 1 21.38 1.50832e+17 23208.2 851.896 352.532 3931.9 133.745 2.06334 1.03847e+17 2.11644e+14 0 2.29987e+16 1.83425e+16 0 5.4322e+15 0 0 0 
155 1 25.6 9.03015e+16 7833.92 372.919 185.842 6813.59 91.0573 -0.545113 7.91902e+16 0 0 3.10412e+15 3.38631e+15 0 4.6209e+15 0 0 0 
283 1 24.03 8.47635e+16 5049.88 291.75 183.425 7058.8 71.6303 -3.16181 7.69327e+16 0 0 1.9048e+15 1.94007e+15 0 3.98597e+15 0 0 0 
267 1 38.2 1.34747e+17 21145.6 746.47 340.762 4768.1 212.97 -6.80357 9.88379e+16 0 0 1.55559e+16 1.44624e+16 0 5.89076e+15 0 0 0 
147 1 32.69 1.15311e+17 16799 583.085 278.204 5704.41 163.479 -6.81403 9.23827e+16 0 0 9.59454e+15 8.39522e+15 0 4.93837e+15 0 0 0 
275 1 27.29 9.62628e+16 11837.5 496.813 242.611 6375.78 137.83 -0.960336 8.27176e+16 0 0 5.22056e+15 4.12706e+15 0 4.19761e+15 0 0 0 
651 1 25.83 1.82226e+17 23271.1 940.387 381.956 3993.5 162.135 5.31141 1.29244e+17 7.05481e+13 0 2.20815e+16 2.41274e+16 0 6.70207e+15 0 0 0 
1163 1 29.9 2.10939e+17 22802.9 1156.91 423.528 3253.91 235.697 25.1495 1.40532e+17 2.11644e+14 0 3.18172e+16 2.91364e+16 0 9.2418e+15 0 0 0 
1675 1 19.67 1.38768e+17 22469.7 917.208 317.872 4432.18 183.357 -8.56442 1.02647e+17 0 0 1.55206e+16 1.62261e+16 0 4.37398e+15 0 0 0 
2187 1 25.1 1.77076e+17 22694.8 1095.29 448.706 3632.24 263.016 -0.795859 1.17886e+17 7.05481e+13 0 2.70905e+16 2.37747e+16 0 8.25412e+15 0 0 0 
1795 1 25.31 1.78557e+17 23215.7 928.607 392.571 3451.04 136.38 14.6165 1.18521e+17 1.41096e+14 0 2.7161e+16 2.38452e+16 0 8.88906e+15 0 0 0 
2307 1 32.61 2.30057e+17 21425.4 917.545 466.139 2502.21 204.728 -9.4589 1.45893e+17 1.41096e+14 0 3.87309e+16 3.85898e+16 0 6.70207e+15 0 0 0 
1292 2 30.35 2.14113e+17 19612 1424.74 494.698 3390.52 478.917 7.8743 1.42437e+17 0 0 3.35809e+16 2.96302e+16 0 8.46577e+15 0 0 0 
2316 2 22.38 1.57887e+17 19900.9 1248.86 411.174 4393.25 428.72 0.808007 1.13794e+17 1.41096e+14 0 1.98946e+16 1.83425e+16 0 5.71439e+15 0 0 0 
5252 2 182.73 2.57825e+18 8080.79 1650.27 715.924 613.225 84.1726 13.672 1.52172e+18 2.68083e+15 0 5.29957e+17 4.59832e+17 0 6.40577e+16 0 0 0 
13444 2 166.05 2.3429e+18 4867.14 1301.01 624.464 168.94 115.721 -4.78129 1.38641e+18 1.12877e+15 0 4.80715e+17 4.02971e+17 0 7.16768e+16 0 0 0 
17540 2 343.11 4.84115e+18 2606.92 1127.84 599.845 29.3545 106.576 9.51136 3.05699e+18 2.53973e+15 0 9.54092e+17 6.84599e+17 0 1.4293e+17 0 0 0 
6276 2 140.31 1.97972e+18 3896.47 1198.52 632.44 48.0893 147.832 3.6083 1.17561e+18 7.05481e+14 0 4.12565e+17 3.33692e+17 0 5.71439e+16 0 0 0 
10372 2 246.44 3.47717e+18 2502.7 1073.87 582.103 -0.750835 121.491 -3.78438 2.17091e+18 1.69315e+15 0 7.09431e+17 4.89745e+17 0 1.05399e+17 0 0 0 
14468 2 122.72 1.73153e+18 4566.04 1222.7 609.496 125.654 167.754 -0.711665 1.03607e+18 2.39863e+15 0 3.63605e+17 2.77818e+17 0 5.16412e+16 0 0 0 
18564 2 200.06 2.82277e+18 2788.93 1055.32 569.793 22.6841 126.77 -1.82432 1.75608e+18 5.64385e+14 0 5.54226e+17 4.26816e+17 0 8.5081e+16 0 0 0 
5260 2 50.45 7.1183e+17 10781.6 1316.97 601.062 951.498 424.963 15.0293 4.40502e+17 1.26987e+15 0 1.37004e+17 1.10902e+17 0 2.21521e+16 0 0 0 
9356 2 55 7.76029e+17 10041.6 1308.21 614.421 923.192 439.686 5.0318 4.88193e+17 1.26987e+15 0 1.44341e+17 1.17392e+17 0 2.48329e+16 0 0 0 
13452 2 35.3 4.98069e+17 13805.4 1395.01 614.034 1494.51 455.116 3.127 3.06602e+17 2.82192e+14 0 9.63687e+16 7.7744e+16 0 1.70726e+16 0 0 0 
17548 2 39.3 5.54508e+17 13134.3 1361.62 590.998 1507.24 517.222 1.88317 3.44275e+17 4.23288e+14 0 1.11184e+17 8.05659e+16 0 1.80603e+16 0 0 0 
6284 2 24.95 3.52035e+17 15014.7 1452.02 567.097 1810.65 510.045 -2.46317 2.14607e+17 4.23288e+14 0 6.57508e+16 5.61563e+16 0 1.50973e+16 0 0 0 
10380 2 28.36 4.00149e+17 14211.1 1710.38 590.468 1813.64 578.114 31.4875 2.4325e+17 1.55206e+15 0 7.44988e+16 6.78672e+16 0 1.29808e+16 0 0 0 
14476 2 20.17 2.84591e+17 18377.6 1612.58 536.087 2526.53 494.433 -1.54721 1.88787e+17 1.41096e+14 0 4.96658e+16 3.78138e+16 0 8.18358e+15 0 0 0 
18572 2 21.17 2.98701e+17 17344.9 1548.32 555.03 2410.27 559.7 -40.1408 1.9824e+17 5.64385e+14 0 4.6985e+16 4.27521e+16 0 1.01589e+16 0 0 0 
5380 2 112.74 1.59072e+18 5947.19 1296.28 601.599 286.336 181.787 -3.52292 9.5e+17 8.46577e+14 0 3.37643e+17 2.54961e+17 0 4.72672e+16 0 0 0 
9476 2 177.13 2.49924e+18 3897.66 1154.3 595.849 150.278 147.654 1.59621 1.53625e+18 1.12877e+15 0 4.99198e+17 3.88438e+17 0 7.42166e+16 0 0 0 
13572 2 98.58 1.39093e+18 5803.11 1286.45 608.154 282.591 231.878 -0.951393 8.12573e+17 1.41096e+14 0 3.00958e+17 2.28999e+17 0 4.82549e+16 0 0 0 
17668 2 150.12 2.11814e+18 4429.28 1223.49 622.237 198.419 193.966 1.94098 1.30048e+18 9.87673e+14 0 4.08473e+17 3.44557e+17 0 6.36344e+16 0 0 0 
6404 2 78.17 1.10295e+18 6695.3 1336.74 576.112 374.267 301.492 8.6089 6.63575e+17 8.46577e+14 0 2.21944e+17 1.78063e+17 0 3.85192e+16 0 0 0 
10500 2 120.74 1.70359e+18 4541.47 1184.52 609.79 202.601 274.041 -0.0280546 1.0403e+18 1.26987e+15 0 3.47661e+17 2.68929e+17 0 4.5433e+16 0 0 0 
14596 2 64.26 9.06684e+17 8073.99 1243.62 605.463 569.565 358.758 -10.5233 5.57189e+17 8.46577e+14 0 1.74818e+17 1.43354e+17 0 3.04768e+16 0 0 0 
18692 2 86.08 1.21456e+18 6321.15 1308.24 609.123 407.624 352.212 -12.3865 7.42448e+17 1.97535e+15 0 2.52421e+17 1.76935e+17 0 4.07768e+16 0 0 0 
8 3 8.64 1.52384e+16 7819.08 3066.42 1036.66 4824.29 -223.424 58.0651 9.01252e+15 5.29111e+13 0 3.06884e+15 2.52209e+15 0 5.82022e+14 0 0 0 
7 3 7.85 1.38451e+16 8724.17 3812.67 1167.5 4232.12 -298.766 -35.8813 7.63683e+15 0 0 3.31576e+15 2.43391e+15 0 4.58562e+14 0 0 0 
80 3 25.22 8.89611e+16 5113.66 1502.51 446.406 6442.35 20.9474 7.93723 6.60683e+16 0 0 9.912e+15 9.2418e+15 0 3.73905e+15 0 0 0 
144 3 24.1 8.50104e+16 4637.2 1536.97 413.317 6552.18 -4.73355 -18.6288 6.49748e+16 1.7637e+14 0 9.41817e+15 7.83084e+15 0 2.61028e+15 0 0 0 
208 3 29.05 1.02471e+17 4748.93 1280.39 430.139 6606.35 117.027 4.69838 7.93313e+16 0 0 9.62981e+15 9.2418e+15 0 4.26816e+15 0 0 0 
272 3 26.86 9.47461e+16 4600.22 1392.61 437.159 6599.46 112.888 -10.2716 7.35816e+16 7.05481e+13 0 9.31235e+15 7.83084e+15 0 3.95069e+15 0 0 0 
88 3 27.68 9.76385e+16 4168.96 997.724 333.417 6815.25 142.479 -5.82496 8.15888e+16 0 0 6.45515e+15 5.46748e+15 0 4.12706e+15 0 0 0 
152 3 25.84 9.11481e+16 3656.02 953.901 300.063 6909.76 118.099 -5.33291 7.6333e+16 3.5274e+13 0 5.78494e+15 5.11474e+15 0 3.88014e+15 0 0 0 
216 3 26.61 9.38642e+16 3357.41 808.087 299.029 7014.48 134.979 9.50484 8.11656e+16 0 0 4.58562e+15 3.6685e+15 0 4.44453e+15 0 0 0 
280 3 25.8 9.1007e+16 2935.3 743.613 254.378 7059.24 113.315 2.87409 8.02484e+16 3.5274e+13 0 4.33871e+15 2.89247e+15 0 3.49213e+15 0 0 0 
96 3 23.84 8.40933e+16 2894.65 624 237.794 7115.03 126.601 4.32066 7.48162e+16 3.5274e+13 0 2.92775e+15 2.25754e+15 0 4.05651e+15 0 0 0 
160 3 25.1 8.85378e+16 2751.69 641.692 262.239 7117.08 115.954 -3.76436 7.98957e+16 0 0 2.61028e+15 2.46918e+15 0 3.56268e+15 0 0 0 
224 3 24.39 8.60334e+16 2397.45 540.138 201.544 7209.16 118.639 1.75061 7.85906e+16 0 0 1.94007e+15 1.94007e+15 0 3.56268e+15 0 0 0 
288 3 24.75 8.73032e+16 2326.84 570.989 211.647 7209.8 113.519 -3.21583 7.96488e+16 0 0 2.01062e+15 1.7637e+15 0 3.88014e+15 0 0 0 
79 3 27.3 9.62981e+16 5765.79 1622.66 500.534 6280.19 46.0282 21.6853 6.72676e+16 7.05481e+13 0 1.27692e+16 1.18168e+16 0 4.37398e+15 0 0 0 
143 3 27.58 9.72858e+16 5344.18 1723.29 448.463 6365.12 9.19445 -1.40101 7.20649e+16 0 0 1.2099e+16 9.98255e+15 0 3.13939e+15 0 0 0 
207 3 29.7 1.04764e+17 5584.87 1622.82 429.987 6469.13 137.149 -2.90149 8.17652e+16 3.5274e+13 0 1.04764e+16 8.92433e+15 0 3.56268e+15 0 0 0 
271 3 28.97 1.02189e+17 5069.28 1522.87 461.488 6538.92 124.387 7.60644 7.96488e+16 1.41096e+14 0 9.94728e+15 9.20652e+15 0 3.24521e+15 0 0 0 
87 3 27.68 9.76385e+16 4638.9 1188.54 318.84 6803.42 180.678 -3.5167 8.16594e+16 0 0 5.92604e+15 6.27878e+15 0 3.77432e+15 0 0 0 
151 3 27.44 9.6792e+16 4268.77 941.693 316.744 6811.09 158.913 9.36469 8.11303e+16 0 0 5.96131e+15 5.53802e+15 0 4.16234e+15 0 0 0 
215 3 26.15 9.22416e+16 4236.74 915.102 289.147 6927.22 158.916 11.386 7.9296e+16 3.5274e+13 0 4.69145e+15 3.84487e+15 0 4.37398e+15 0 0 0 
279 3 26.1 9.20652e+16 4043.76 927.264 284.814 6936.98 163.464 9.3829 7.96135e+16 7.05481e+13 0 4.6209e+15 3.95069e+15 0 3.8096e+15 0 0 0 
95 3 25.28 8.91728e+16 3808.01 639.809 237.751 7054.69 143.05 -2.58928 8.03543e+16 0 0 2.78665e+15 2.68083e+15 0 3.35103e+15 0 0 0 
159 3 25.32 8.93139e+16 3182.67 584.268 233.707 7100.16 119.849 1.51927 7.9931e+16 3.5274e+13 0 3.03357e+15 2.61028e+15 0 3.70377e+15 0 0 0 
223 3 24.3 8.57159e+16 3233.96 515.833 203.816 7139.17 123.21 6.54137 7.78851e+16 0 0 2.08117e+15 1.7637e+15 0 3.98597e+15 0 0 0 
287 3 24.44 8.62097e+16 2896.21 429.852 205.556 7155.53 115.731 3.62135 7.88375e+16 3.5274e+13 0 1.97535e+15 2.04589e+15 0 3.31576e+15 0 0 0 
142 3 30.08 1.06104e+17 6281.87 2047.85 525.342 6135.51 40.9205 -26.2032 7.46046e+16 3.5274e+13 0 1.50267e+16 1.28045e+16 0 3.63323e+15 0 0 0 
270 3 31.62 1.11537e+17 6438.24 1658.62 487.264 6325.28 184.077 16.4675 8.46577e+16 0 0 1.31219e+16 9.52399e+15 0 4.23288e+15 0 0 0 
150 3 29.17 1.02894e+17 6039.67 1137.04 359.566 6617.62 211.906 -3.25925 8.50457e+16 0 0 7.58392e+15 6.34933e+15 0 3.91542e+15 0 0 0 
278 3 27.51 9.70389e+16 5250.55 868.586 261.803 6844.75 191.683 -10.3427 8.39875e+16 3.5274e+13 0 4.51508e+15 3.88014e+15 0 4.6209e+15 0 0 0 
158 3 24.67 8.7021e+16 4300.57 698.516 254.454 7019.24 145.683 8.37647 7.78145e+16 3.5274e+13 0 3.03357e+15 2.32809e+15 0 3.8096e+15 0 0 0 
286 3 24.45 8.6245e+16 3341.8 439.176 196.597 7139.67 123.487 -0.819987 7.82025e+16 3.5274e+13 0 2.15172e+15 1.94007e+15 0 3.91542e+15 0 0 0 
5 3 164.88 2.81978e+18 2998.31 965.814 574.46 119.204 191.866 2.31346 1.8123e+18 3.24938e+15 0 5.36319e+17 3.8223e+17 0 8.5681e+16 0 0 0 
5 3 1.79 1.27036e+16 7963.76 2516.82 1026.29 2296.59 -555.797 -67.5434 7.30986e+15 0 0 2.76781e+15 1.98715e+15 0 6.38726e+14 0 0 0 
149 3 32.53 1.14746e+17 10430.2 1130.31 345.353 6133.88 287.658 -2.29854 9.10776e+16 0 0 9.70036e+15 8.39522e+15 0 5.5733e+15 0 0 0 
277 3 27.85 9.82382e+16 8776.08 768.402 323.804 6481.75 216.828 -2.67633 8.25412e+16 3.5274e+13 0 5.96131e+15 6.10241e+15 0 3.59795e+15 0 0 0 
157 3 26.41 9.31587e+16 6375.55 699.947 228.147 6830.43 174.924 7.03404 8.16947e+16 0 0 4.26816e+15 3.28049e+15 0 3.91542e+15 0 0 0 
285 3 25.42 8.96666e+16 5820.08 425.735 217.93 6932.65 157.464 -9.29547 8.03895e+16 3.5274e+13 0 3.20994e+15 2.36336e+15 0 3.6685e+15 0 0 0 
6 3 6.35 1.20635e+16 9890.2 4398.03 844.042 3652.85 -622.829 -153.974 6.49718e+15 0 0 2.65966e+15 2.3557e+15 0 5.5093e+14 0 0 0 
78 3 32.64 1.15134e+17 7301.75 2185.75 637.412 5884.93 89.7016 -13.21 7.75323e+16 1.05822e+14 0 1.73901e+16 1.58733e+16 0 4.23288e+15 0 0 0 
206 3 32.83 1.15805e+17 8060.17 1782.49 490.847 6092.28 254.475 4.51235 8.73385e+16 7.05481e+13 0 1.35452e+16 1.08644e+16 0 3.98597e+15 0 0 0 
86 3 29.45 1.03882e+17 7762.48 1250.69 363.596 6417.15 268.251 10.2395 8.38464e+16 0 0 8.67741e+15 7.12536e+15 0 4.23288e+15 0 0 0 
214 3 26.62 9.38995e+16 6948.64 945.607 309.771 6675.85 248.744 8.62192 7.9296e+16 1.41096e+14 0 4.83254e+15 4.93837e+15 0 4.69145e+15 0 0 0 
94 3 26.24 9.25591e+16 5168.25 582.141 224.969 6931.56 181.88 7.32906 7.94371e+16 0 0 4.09179e+15 3.88014e+15 0 5.15001e+15 0 0 0 
222 3 24.32 8.57865e+16 3995.31 386.246 191.344 7091.38 130.88 -6.51768 7.74618e+16 0 0 2.25754e+15 2.29281e+15 0 3.77432e+15 0 0 0 