ITEM: TIMESTEP
21000
ITEM: NUMBER OF CELLS
240
ITEM: BOX BOUNDS oo ao pp
-10 10
0 10
-0.5 0.5
ITEM: CELLS id proc f_avg_n f_avg_nrho f_avg_temp_tra f_avg_temp_rot f_avg_temp_vib f_avg_vel[1] f_avg_vel[2] f_avg_vel[3] f_avg_nrho_CO2 f_avg_nrho_O2 f_avg_nrho_C2 f_avg_nrho_CO f_avg_nrho_O f_avg_nrho_C f_avg_nrho_N2 f_avg_nrho_N f_avg_nrho_NO f_avg_nrho_CN 
65 0 24.72 8.71974e+16 6340.97 186.014 156.614 6996.73 10.5992 -0.906387 7.8789e+16 0 0 1.89598e+15 2.5706e+15 0 3.94187e+15 0 0 0 
129 0 26.4075 9.31499e+16 9628.34 267.232 185.255 6690.5 24.9406 -0.0123475 8.13155e+16 8.81851e+12 0 3.13939e+15 4.13588e+15 0 4.55035e+15 0 0 0 
193 0 24.5188 8.64875e+16 6307.79 202.005 155.562 6997.95 8.46603 -1.16828 7.82466e+16 0 0 1.88716e+15 2.54414e+15 0 3.8096e+15 0 0 0 
257 0 25.5675 9.01869e+16 9703.12 256.391 178.277 6685.59 15.291 1.45782 7.87669e+16 1.32278e+13 0 3.35985e+15 3.95951e+15 0 4.08738e+15 0 0 0 
66 0 29.4462 1.03869e+17 13769 410.077 207.825 6236.88 29.9133 -0.274819 8.67521e+16 1.7637e+13 0 5.59975e+15 6.97985e+15 0 4.51949e+15 0 0 0 
130 0 34.4038 1.21356e+17 18988.6 545.234 272.113 5486.08 36.8811 0.164592 9.48695e+16 1.7637e+13 0 1.00046e+16 1.09746e+16 0 5.48952e+15 0 0 0 
194 0 28.515 1.00584e+17 14199 410.131 214.323 6194.39 31.6953 2.04364 8.44769e+16 8.81851e+12 0 5.63503e+15 6.19941e+15 0 4.26375e+15 0 0 0 
258 0 32.9 1.16052e+17 19168.4 540.008 263.422 5451.63 55.0419 2.3906 9.08218e+16 2.20463e+13 0 9.63863e+15 1.06969e+16 0 4.87223e+15 0 0 0 
579 0 29.6225 2.08981e+17 16105.2 588.088 250.373 5879.04 61.6855 -0.964426 1.68169e+17 4.40925e+13 0 1.53971e+16 1.61114e+16 0 9.25943e+15 0 0 0 
1091 0 32.9075 2.32156e+17 18931.1 730.334 316.635 5358.73 67.8227 -5.16317 1.76793e+17 4.40925e+13 0 2.12526e+16 2.38276e+16 0 1.02383e+16 0 0 0 
1603 0 18.035 1.27233e+17 23979.4 707.926 357.696 3913.67 30.5222 0.753092 8.7365e+16 3.5274e+13 0 1.6279e+16 1.78134e+16 0 5.74085e+15 0 0 0 
2115 0 21.4737 1.51493e+17 23492.6 961.399 423.786 3314.51 42.7752 5.51076 9.95698e+16 3.5274e+13 0 2.26724e+16 2.32368e+16 0 5.97895e+15 0 0 0 
707 0 21.8337 1.54033e+17 21567.7 716.778 319.468 4887.57 63.4612 2.41982 1.14455e+17 4.40925e+13 0 1.59086e+16 1.6861e+16 0 6.7638e+15 0 0 0 
1219 0 24.8912 1.75603e+17 23193.5 812.922 365.579 4239.65 76.5248 2.32749 1.24403e+17 1.05822e+14 0 2.22756e+16 2.23814e+16 0 6.43751e+15 0 0 0 
643 0 38.01 2.68153e+17 21666.7 906.73 344.061 4647.24 59.555 1.49765 1.92579e+17 9.70036e+13 0 3.25138e+16 3.30606e+16 0 9.90319e+15 0 0 0 
1667 0 27.7825 1.96e+17 21853.1 1023.43 452.542 2542.63 79.1821 -0.372721 1.2271e+17 8.81851e+13 0 3.27519e+16 3.34839e+16 0 6.96662e+15 0 0 0 
2179 0 37.31 2.63215e+17 18990.4 1146.93 523.649 1881.71 90.2363 -0.207541 1.58169e+17 9.70036e+13 0 4.82284e+16 4.71614e+16 0 9.55926e+15 0 0 0 
771 0 29.9413 2.1123e+17 23331.8 970.876 416.862 3456.31 113.119 -4.01831 1.40893e+17 8.81851e+13 0 2.97801e+16 3.14027e+16 0 9.06543e+15 0 0 0 
1283 0 38.2788 2.70049e+17 21704.7 1089.61 476.513 2643.62 138.497 3.73305 1.69783e+17 2.29281e+14 0 4.60943e+16 4.36604e+16 0 1.02824e+16 0 0 0 
5251 0 29.74 4.1962e+17 18076.2 868.964 342.81 5394.35 69.7485 2.62717 3.16549e+17 7.05481e+13 0 4.05475e+16 4.53095e+16 0 1.71432e+16 0 0 0 
9347 0 31.4363 4.43553e+17 20040.8 1142.56 391.69 4815.17 52.0896 19.7424 3.1505e+17 4.93837e+14 0 5.85373e+16 5.26112e+16 0 1.6861e+16 0 0 0 
13443 0 19.5413 2.7572e+17 22628.9 1182.32 453.843 3382.23 62.3641 -3.04608 1.78116e+17 1.58733e+14 0 4.44276e+16 4.19408e+16 0 1.1076e+16 0 0 0 
17539 0 22.3113 3.14803e+17 21972.7 1164.51 462.307 2965.06 64.5374 -0.617103 1.95471e+17 4.23288e+14 0 5.36694e+16 5.11826e+16 0 1.40567e+16 0 0 0 
4676 0 35.2375 4.97188e+17 21243 1183.77 457.305 4193.15 48.3856 1.88779 3.299e+17 1.05822e+14 0 7.26998e+16 7.56452e+16 0 1.88363e+16 0 0 0 
8772 0 41.2263 5.81687e+17 21522.3 1375.38 486.698 3879.29 54.7356 1.31106 3.78138e+17 1.94007e+14 0 9.10423e+16 9.15009e+16 0 2.08117e+16 0 0 0 
12868 0 26.9337 3.80025e+17 20601.8 1290.5 514.165 2510.28 70.7711 3.94171 2.31733e+17 1.23459e+14 0 6.73029e+16 6.63681e+16 0 1.44976e+16 0 0 0 
16964 0 32.0063 4.51596e+17 19032.2 1390.57 566.595 2099.99 77.5294 8.4912 2.66002e+17 2.64555e+14 0 8.58394e+16 8.22767e+16 0 1.72137e+16 0 0 0 
5188 0 46.665 6.58425e+17 21208.8 1474.54 535.099 3214.28 48.9453 -12.9035 4.13747e+17 5.64385e+14 0 1.14605e+17 1.04852e+17 0 2.46566e+16 0 0 0 
9284 0 57.7713 8.1513e+17 19149 1532.21 606.271 2485.18 51.7978 6.03851 4.85865e+17 4.23288e+14 0 1.53019e+17 1.45893e+17 0 2.993e+16 0 0 0 
13380 0 39.9913 5.64261e+17 16709.4 1389.51 572.915 1660.92 61.2401 1.58188 3.28736e+17 3.70377e+14 0 1.11254e+17 1.03177e+17 0 2.07235e+16 0 0 0 
17476 0 50.6275 7.14335e+17 14210.8 1524.35 638.471 1277.75 63.0034 -3.63739 4.04293e+17 4.05651e+14 0 1.51096e+17 1.33971e+17 0 2.45684e+16 0 0 0 
5700 0 24.62 3.47379e+17 16360.3 1270.21 587.827 1469.52 93.6341 -7.03139 2.02402e+17 2.11644e+14 0 6.72852e+16 6.37578e+16 0 1.37216e+16 0 0 0 
9796 0 30.2462 4.26763e+17 14312 1250.83 572.591 1116.44 99.5903 4.35679 2.46707e+17 2.82192e+14 0 8.65272e+16 7.8326e+16 0 1.49209e+16 0 0 0 
13892 0 24.2662 3.42387e+17 16573.7 1150.19 531.174 1460.95 98.1666 10.1632 2.01979e+17 1.58733e+14 0 6.4622e+16 6.1853e+16 0 1.37745e+16 0 0 0 
17988 0 28.7138 4.0514e+17 14178.5 1181.16 574.753 1099.52 125.369 -0.749234 2.33056e+17 2.11644e+14 0 8.01779e+16 7.68092e+16 0 1.48856e+16 0 0 0 
6212 0 37.77 5.3292e+17 12121.9 1260.94 581.518 834.206 100.026 0.533095 3.0512e+17 3.88014e+14 0 1.09967e+17 9.81147e+16 0 1.93302e+16 0 0 0 
10308 0 48.5675 6.85269e+17 9532.02 1284.33 625.914 545.903 110.785 -1.73226 3.90642e+17 8.11303e+14 0 1.45699e+17 1.26193e+17 0 2.19228e+16 0 0 0 
14404 0 36.54 5.15565e+17 12112.3 1174.27 586.086 853.1 141.065 -6.88627 2.95879e+17 1.94007e+14 0 1.05505e+17 9.49224e+16 0 1.90656e+16 0 0 0 
18500 0 47.03 6.63575e+17 9824.29 1260.84 594.773 581.206 149.672 3.98335 3.80642e+17 5.64385e+14 0 1.37745e+17 1.21501e+17 0 2.31221e+16 0 0 0 
4804 0 24.71 3.48649e+17 19182.5 1180.69 540.12 2054.12 142.296 -0.130571 2.10992e+17 1.23459e+14 0 6.27172e+16 6.17648e+16 0 1.30514e+16 0 0 0 
8900 0 29.2712 4.13006e+17 17359.3 1261.75 572.119 1682.84 164.053 -3.42564 2.47465e+17 2.64555e+14 0 7.98251e+16 7.06539e+16 0 1.47975e+16 0 0 0 
12996 0 22.84 3.22264e+17 19486.4 1256.22 521.159 2125.38 181.035 -8.78429 1.96617e+17 1.23459e+14 0 5.74967e+16 5.56272e+16 0 1.23988e+16 0 0 0 
17092 0 27.255 3.84558e+17 17930 1256.84 545.137 1816.55 193.706 -2.34433 2.30763e+17 1.7637e+14 0 7.25411e+16 6.725e+16 0 1.38274e+16 0 0 0 
5316 0 35.0825 4.95001e+17 14354.3 1314.62 575.422 1187.52 168.37 0.476533 2.92369e+17 3.70377e+14 0 9.56456e+16 8.89258e+16 0 1.76899e+16 0 0 0 
9412 0 45.6337 6.43875e+17 13027.1 1274.31 586.888 1053.01 184.705 3.8948 3.77238e+17 4.23288e+14 0 1.28009e+17 1.15787e+17 0 2.24167e+16 0 0 0 
13508 0 33.3413 4.70432e+17 16172.8 1284.41 562.48 1514.83 213.458 -5.15402 2.80199e+17 2.99829e+14 0 9.13598e+16 8.09716e+16 0 1.76017e+16 0 0 0 
17604 0 40.4712 5.71034e+17 13208.3 1336.56 600.252 1097.41 235.962 2.9749 3.3505e+17 5.11474e+14 0 1.14764e+17 9.99313e+16 0 2.07764e+16 0 0 0 
4868 0 57.715 8.14336e+17 9937.6 1333.13 610.741 662.072 194.586 -1.54796 4.71385e+17 4.76199e+14 0 1.73742e+17 1.41361e+17 0 2.73727e+16 0 0 0 
8964 0 78.2913 1.10466e+18 7642.19 1299.97 618.043 438.8 196.76 2.19157 6.37102e+17 7.93666e+14 0 2.34572e+17 1.92984e+17 1.7637e+13 3.91895e+16 0 0 0 
13060 0 52.3225 7.3825e+17 10530.4 1314.18 611.482 767.215 248.059 -0.458539 4.30379e+17 5.64385e+14 0 1.51802e+17 1.30355e+17 0 2.51504e+16 0 0 0 
17156 0 68.7788 9.70442e+17 8447.11 1316.91 622.633 530.825 246.551 -2.23217 5.7532e+17 5.99659e+14 0 1.98946e+17 1.62472e+17 0 3.31047e+16 0 0 0 
4740 0 74.4938 1.05108e+18 16440.2 1708.01 649.033 1871.56 44.1236 -11.9324 6.00029e+17 5.82022e+14 0 2.16018e+17 2.0175e+17 0 3.2699e+16 0 0 0 
8836 0 106.522 1.50299e+18 12276 1782.91 686.032 1157.13 53.4169 7.58409 8.54196e+17 7.93666e+14 0 3.17537e+17 2.80658e+17 0 4.98069e+16 0 0 0 
12932 0 67.9587 9.58872e+17 11034.6 1453.11 655.754 816.813 75.0344 -2.17275 5.47347e+17 1.32278e+15 0 2.02861e+17 1.75153e+17 0 3.21876e+16 0 0 0 
17028 0 99.0212 1.39715e+18 7990.13 1450.53 642.462 478.165 94.9655 0.889833 7.92696e+17 9.34762e+14 0 3.05526e+17 2.51698e+17 0 4.62972e+16 0 0 0 
5764 0 65.2 9.19947e+17 7621.33 1284.95 634.784 341.529 124.217 -1.31653 5.21421e+17 6.70207e+14 0 1.95753e+17 1.70074e+17 0 3.20288e+16 0 0 0 
9860 0 91.9137 1.29687e+18 5456.15 1264.35 620.173 141.434 135.872 -2.62451 7.50843e+17 8.2894e+14 0 2.7646e+17 2.24978e+17 0 4.37574e+16 0 0 0 
13956 0 62.02 8.75078e+17 7646.46 1270.76 612.732 352.415 156.492 -1.87473 5.06976e+17 6.34933e+14 0 1.81714e+17 1.56581e+17 0 2.91716e+16 0 0 0 
18052 0 85.6462 1.20844e+18 5839.03 1234.71 606.493 196.04 166.367 -2.46483 7.07033e+17 8.99488e+14 0 2.50481e+17 2.0891e+17 0 4.11119e+16 0 0 0 
84 1 33.7725 1.19129e+17 17659.3 781.774 319.699 5455.98 243.357 -4.4225 9.3e+16 2.20463e+13 0 1.06483e+16 1.03441e+16 0 5.11474e+15 0 0 0 
212 1 28.4438 1.00333e+17 12396 566.031 242.003 6273.45 171.405 -3.89084 8.41374e+16 1.32278e+13 0 5.74967e+15 6.0054e+15 0 4.42689e+15 0 0 0 
92 1 26.0538 9.19021e+16 8219.28 457.659 212.153 6743.59 121.395 -1.64242 8.07379e+16 0 0 3.49213e+15 3.51418e+15 0 4.15793e+15 0 0 0 
220 1 24.4937 8.63993e+16 5370.6 309.269 177.068 7022.83 85.1548 0.31385 7.81893e+16 4.40925e+12 0 2.13849e+15 2.32368e+15 0 3.74346e+15 0 0 0 
588 1 37.0787 2.61583e+17 21316.5 1094.15 481.365 2726.49 275.81 -0.693267 1.68116e+17 1.32278e+14 0 4.3149e+16 4.02829e+16 0 9.90319e+15 0 0 0 
1612 1 28.7725 2.02984e+17 22071.2 1038.47 456.859 3141.86 313.566 4.66683 1.33503e+17 7.93666e+13 0 3.12352e+16 2.99036e+16 0 8.26294e+15 0 0 0 
2124 1 34.205 2.4131e+17 20261.6 1255.05 502.141 2602.95 387.565 0.22691 1.54835e+17 9.70036e+13 0 3.99743e+16 3.71524e+16 0 9.25062e+15 0 0 0 
716 1 24.29 1.71361e+17 22358.9 970.031 390.142 3990.56 296.067 1.80534 1.19755e+17 1.14641e+14 0 2.33867e+16 2.11821e+16 0 6.92253e+15 0 0 0 
1228 1 27.2862 1.92499e+17 21864.1 1093.61 440.738 3713.69 357.907 1.93166 1.32075e+17 1.85189e+14 0 2.76548e+16 2.50798e+16 0 7.50455e+15 0 0 0 
1740 1 19.7362 1.39235e+17 21359.6 984.78 394.889 4555.49 290.251 -4.41357 1.01325e+17 8.81851e+12 0 1.65259e+16 1.53707e+16 0 6.0054e+15 0 0 0 
2252 1 20.8825 1.47322e+17 21493.1 1014.79 391.479 4322.36 343.34 5.0198 1.05849e+17 7.05481e+13 0 1.80691e+16 1.71785e+16 0 6.15532e+15 0 0 0 
148 1 35.2062 1.24187e+17 17339.4 930.984 344.47 5351.5 317.751 1.21352 9.57205e+16 2.20463e+13 0 1.19403e+16 1.1323e+16 0 5.18087e+15 0 0 0 
276 1 28.9625 1.02162e+17 11977 702.419 260.003 6261.89 210.804 0.560542 8.48693e+16 4.40925e+13 0 6.42428e+15 6.24791e+15 0 4.57681e+15 0 0 0 
156 1 26.0125 9.17566e+16 8109.27 460.37 208.777 6733.73 146.957 -3.70191 8.01955e+16 4.40925e+12 0 3.7655e+15 3.64204e+15 0 4.14911e+15 0 0 0 
284 1 24.7125 8.7171e+16 5667.99 345.527 184.443 6985.07 107.723 0.923099 7.82158e+16 0 0 2.43832e+15 2.42068e+15 0 4.0962e+15 0 0 0 
780 1 29.5138 2.08214e+17 20826.3 1236.75 487.051 3394.02 430.012 -0.654948 1.40285e+17 1.58733e+14 0 3.17731e+16 2.78577e+16 0 8.13948e+15 0 0 0 
1804 1 22.5975 1.59421e+17 20704.8 1073.44 428.399 4228.64 390.916 -1.33465 1.13344e+17 6.17296e+13 0 2.04501e+16 1.91185e+16 0 6.44633e+15 0 0 0 
5196 1 24.1737 3.41082e+17 19367.5 1192.4 510.244 2169.76 300.022 6.40341 2.14731e+17 2.99829e+14 0 6.01599e+16 5.27876e+16 0 1.31043e+16 0 0 0 
9292 1 28.0775 3.96163e+17 16909.9 1264.01 564.622 1761.08 342.26 -1.0539 2.4101e+17 2.11644e+14 0 7.39873e+16 6.72852e+16 0 1.36687e+16 0 0 0 
13388 1 21.1363 2.98224e+17 19717.4 1177.77 560.923 2398.11 339.262 -3.98111 1.86935e+17 2.11644e+14 0 5.33873e+16 4.62443e+16 0 1.14464e+16 0 0 0 
17484 1 23.79 3.35668e+17 18518.5 1318.82 533.796 2144.41 365.339 6.81558 2.08099e+17 3.17466e+14 0 6.02304e+16 5.52039e+16 0 1.18168e+16 0 0 0 
5828 1 20.275 2.86072e+17 18965.8 1140.2 489.336 1933.96 220.675 1.15947 1.72931e+17 2.64555e+14 0 5.40222e+16 4.80785e+16 0 1.07762e+16 0 0 0 
9924 1 24.5525 3.46426e+17 17548.9 1205.06 553.049 1734.33 233.011 -6.71877 2.1041e+17 2.64555e+14 0 6.44986e+16 5.96308e+16 0 1.16228e+16 0 0 0 
14020 1 18.9237 2.67007e+17 19550.3 1031.18 503.822 2062.77 254.662 -0.515496 1.67058e+17 1.7637e+14 0 4.53271e+16 4.30872e+16 0 1.13582e+16 0 0 0 
18116 1 22.3038 3.14697e+17 18128.3 1165.39 538.012 1862.43 265.563 5.57256 1.92526e+17 1.58733e+14 0 5.73732e+16 5.31403e+16 0 1.14993e+16 0 0 0 
6340 1 29.0012 4.09196e+17 15108.5 1323.03 548.246 1325.43 257.91 -0.959642 2.42862e+17 2.11644e+14 0 8.00721e+16 7.10595e+16 0 1.49915e+16 0 0 0 
10436 1 35.9075 5.06641e+17 13325 1268.32 587.58 1097.32 281.527 -1.93396 2.99618e+17 3.17466e+14 0 1.02718e+17 8.68976e+16 0 1.70903e+16 0 0 0 
14532 1 26.2462 3.70324e+17 16190.7 1226.07 556.317 1541.21 289.869 -2.87905 2.22456e+17 1.41096e+14 0 7.12712e+16 6.32816e+16 0 1.31749e+16 0 0 0 
18628 1 31.79 4.48545e+17 14085 1298.79 559.284 1226.15 314.121 5.45272 2.67377e+17 3.70377e+14 0 8.67918e+16 7.80085e+16 0 1.59968e+16 0 0 0 
5892 1 45.4487 6.41264e+17 10535.2 1244.73 595.082 751.86 293.998 0.137277 3.78684e+17 2.82192e+14 0 1.28309e+17 1.09314e+17 0 2.46742e+16 0 0 0 
9988 1 59.095 8.33808e+17 8679.64 1311.99 608.743 562.306 295.331 3.17197 4.95159e+17 7.05481e+14 0 1.72525e+17 1.36846e+17 0 2.8572e+16 0 0 0 
14084 1 38.9688 5.49834e+17 11976.6 1272.89 605.702 963.465 334.039 4.6544 3.28137e+17 3.5274e+14 0 1.08803e+17 9.22063e+16 0 2.03355e+16 0 0 0 
18180 1 48.655 6.86503e+17 9787.87 1256.27 597.222 720.132 355.281 -3.19479 4.10343e+17 5.11474e+14 0 1.39526e+17 1.12859e+17 0 2.32632e+16 0 0 0 
4748 1 33.235 4.68933e+17 14795.7 1320.7 600.012 1441.38 382.564 1.10411 2.84803e+17 4.23288e+14 0 8.91375e+16 7.7938e+16 0 1.66317e+16 0 0 0 
8844 1 39.7313 5.60593e+17 13014.7 1331.58 581.593 1229.47 391.828 3.23679 3.37908e+17 3.5274e+14 0 1.11766e+17 9.12363e+16 0 1.93302e+16 0 0 0 
12940 1 26.8912 3.79425e+17 16410.6 1320.59 576.71 1788.1 407.851 5.52136 2.34167e+17 2.99829e+14 0 7.03364e+16 6.06361e+16 0 1.39862e+16 0 0 0 
17036 1 31.0712 4.38403e+17 14680.6 1437.12 583.589 1553.07 443.732 -0.654102 2.67924e+17 2.11644e+14 0 8.43402e+16 6.919e+16 0 1.67375e+16 0 0 0 
5772 1 21.675 3.05826e+17 17932.8 1355.97 562.657 2150.91 443.097 3.49755 1.89228e+17 1.7637e+14 0 5.64385e+16 4.83783e+16 0 1.16052e+16 0 0 0 
9868 1 23.96 3.38066e+17 16610.9 1346.43 590.255 1981.16 475.426 5.27295 2.08893e+17 3.5274e+14 0 6.37755e+16 5.34049e+16 0 1.16404e+16 0 0 0 
13964 1 17.975 2.5362e+17 19465.6 1250.93 536.72 2532.65 445.084 -6.53528 1.6309e+17 1.23459e+14 0 4.41102e+16 3.76903e+16 0 8.60686e+15 0 0 0 
18060 1 19.0987 2.69476e+17 18633.7 1382.03 549.954 2469.23 471.911 13.1175 1.72949e+17 3.70377e+14 0 4.59797e+16 4.01595e+16 0 1.00178e+16 0 0 0 
73 1 24.2737 8.56233e+16 6060.97 201.065 155.422 7016.71 12.323 0.846145 7.77484e+16 0 0 1.77252e+15 2.28399e+15 0 3.81841e+15 0 0 0 
137 1 25.4662 8.98297e+16 8842.15 248.789 175.946 6764.06 24.6853 0.322695 7.92519e+16 8.81851e+12 0 2.98066e+15 3.64645e+15 0 3.94187e+15 0 0 0 
201 1 23.855 8.41462e+16 4975.71 170.107 154.671 7107.36 15.2648 1.82028 7.69459e+16 4.40925e+12 0 1.36687e+15 1.88716e+15 0 3.94187e+15 0 0 0 
265 1 25.0587 8.83923e+16 7715.84 227.229 168.273 6865.92 29.0713 0.369037 7.8789e+16 4.40925e+12 0 2.51328e+15 3.16144e+15 0 3.92424e+15 0 0 0 
81 1 23.6212 8.33217e+16 4416.64 179.93 151.198 7148.99 21.4225 -0.4104 7.66196e+16 8.81851e+12 0 1.37128e+15 1.65347e+15 0 3.6685e+15 0 0 0 
145 1 24.545 8.65801e+16 6015.11 230.141 158.22 7012.92 29.7665 -1.80889 7.83525e+16 4.40925e+12 0 1.96653e+15 2.381e+15 0 3.87573e+15 0 0 0 
209 1 23.38 8.24707e+16 3446.96 172.065 146.037 7228.01 14.6094 -1.90758 7.62889e+16 0 0 1.03177e+15 1.3801e+15 0 3.76991e+15 0 0 0 
273 1 23.8012 8.39566e+16 4663.12 206.937 153.869 7124.7 29.2744 -2.75306 7.7087e+16 0 0 1.31396e+15 1.82543e+15 0 3.73023e+15 0 0 0 
89 1 23.1438 8.16373e+16 2840.61 174.557 145.269 7273.41 15.3839 -1.47405 7.61346e+16 0 0 7.80438e+14 1.13759e+15 0 3.58472e+15 0 0 0 
153 1 23.4788 8.2819e+16 3576.23 188.042 147.645 7213.12 23.1124 1.01355 7.63639e+16 4.40925e+12 0 1.01854e+15 1.45946e+15 0 3.97274e+15 0 0 0 
217 1 22.9375 8.09098e+16 2142.44 157.13 145.378 7323.8 13.7662 2.99905 7.58171e+16 0 0 5.73203e+14 8.8626e+14 0 3.63323e+15 0 0 0 
281 1 23.32 8.22591e+16 2711.09 174.848 148.399 7279.51 21.4113 -0.272836 7.63947e+16 0 0 8.73032e+14 1.12436e+15 0 3.86692e+15 0 0 0 
74 1 27.6775 9.76297e+16 12918.2 350.409 204.16 6334.65 44.642 1.84965 8.25809e+16 2.20463e+13 0 4.93837e+15 5.78053e+15 0 4.30784e+15 0 0 0 
138 1 31.1788 1.0998e+17 17559.8 502.032 244.429 5709.92 80.2247 1.73244 8.7947e+16 5.29111e+13 0 8.35554e+15 8.88024e+15 0 4.74436e+15 0 0 0 
202 1 26.3612 9.29868e+16 10745.8 323.742 190.137 6566.99 48.3213 -1.52931 8.05968e+16 8.81851e+12 0 3.91542e+15 4.47098e+15 0 3.99478e+15 0 0 0 
266 1 28.6262 1.00976e+17 14306.8 452.51 233.827 6143.34 81.3965 -0.687903 8.38949e+16 1.32278e+13 0 6.17296e+15 6.55215e+15 0 4.34312e+15 0 0 0 
82 1 25.405 8.96137e+16 8465.81 293.052 179.679 6785.54 47.3676 -2.67152 7.94063e+16 4.40925e+12 0 2.82192e+15 3.37749e+15 0 4.0036e+15 0 0 0 
146 1 26.93 9.4993e+16 11284.6 371.295 197.1 6491.36 74.1341 0.52736 8.15844e+16 4.40925e+12 0 4.23729e+15 4.96482e+15 0 4.20202e+15 0 0 0 
210 1 24.7712 8.73782e+16 6455.74 244.78 168.781 6966.41 44.7317 0.12521 7.8692e+16 1.7637e+13 0 2.05912e+15 2.54414e+15 0 4.06533e+15 0 0 0 
274 1 25.1638 8.87627e+16 7976.55 308.291 181.354 6820.49 60.2403 -1.18713 7.85509e+16 8.81851e+12 0 3.01593e+15 3.16584e+15 0 4.02124e+15 0 0 0 
90 1 23.9425 8.44549e+16 4501.36 215.652 154.611 7132.99 32.3809 0.10285 7.7378e+16 4.40925e+12 0 1.3801e+15 1.88275e+15 0 3.8096e+15 0 0 0 
154 1 24.3113 8.57556e+16 5489.65 255.68 164.374 7039.4 48.7565 -2.43558 7.77969e+16 4.40925e+12 0 1.81661e+15 2.3369e+15 0 3.80078e+15 0 0 0 
218 1 23.3113 8.22282e+16 3307.96 183.997 150.814 7230.9 30.3805 -2.76124 7.6311e+16 0 0 9.83264e+14 1.37569e+15 0 3.55827e+15 0 0 0 
282 1 23.7512 8.37802e+16 3975.97 224.719 157.247 7168.39 40.9858 1.26507 7.70605e+16 4.40925e+12 0 1.24341e+15 1.57851e+15 0 3.89337e+15 0 0 0 
91 1 24.965 8.80616e+16 6770.07 326.685 179.862 6916.53 70.0137 -2.04861 7.88066e+16 2.64555e+13 0 2.35895e+15 2.7161e+15 0 4.15352e+15 0 0 0 
219 1 23.8962 8.42917e+16 4431.25 265.823 163.731 7124.68 52.0019 1.36453 7.71487e+16 0 0 1.59174e+15 1.71079e+15 0 3.84046e+15 0 0 0 
75 1 37.4162 1.31982e+17 21519.1 709.851 313.968 4878.06 131.288 -0.0120747 9.88996e+16 6.17296e+13 0 1.36334e+16 1.40787e+16 0 5.30874e+15 0 0 0 
203 1 32.4612 1.14504e+17 18018.3 572.093 282.589 5578.54 131.361 -2.01289 9.02001e+16 3.96833e+13 0 9.32998e+15 9.82382e+15 0 5.11033e+15 0 0 0 
83 1 28.7013 1.01241e+17 14201.5 444.594 228.092 6131.93 118.354 -1.56574 8.37538e+16 1.7637e+13 0 6.195e+15 6.67561e+15 0 4.59885e+15 0 0 0 
211 1 26.4825 9.34145e+16 9690.29 381.339 196.34 6631.43 92.2227 -2.55399 8.0923e+16 0 0 3.75668e+15 4.61208e+15 0 4.12265e+15 0 0 0 
1731 1 17.8362 1.25831e+17 22480.4 725.586 319.136 4616.95 95.2065 -11.9882 9.13686e+16 7.05481e+13 0 1.44359e+16 1.41096e+16 0 5.84667e+15 0 0 0 
2243 1 21.08 1.48715e+17 23529.5 844.636 359.432 3960.41 117.753 2.98648 1.02427e+17 7.05481e+13 0 2.06265e+16 1.95947e+16 0 5.99659e+15 0 0 0 
155 1 25.495 8.99312e+16 7783.03 391.341 187.901 6815.5 95.9803 3.29289 7.95694e+16 0 0 2.98507e+15 3.20553e+15 0 4.17115e+15 0 0 0 
283 1 24.205 8.53808e+16 4877.43 266.539 169.849 7082.85 68.7285 -2.95494 7.74177e+16 8.81851e+12 0 1.67993e+15 2.26636e+15 0 4.00801e+15 0 0 0 
267 1 38.0125 1.34085e+17 21053.6 809.537 333.616 4801.28 215.901 3.61654 9.89613e+16 4.40925e+13 0 1.44624e+16 1.48504e+16 0 5.7673e+15 0 0 0 
147 1 31.6363 1.11594e+17 16225 610.573 268.708 5799.54 170.497 -0.634769 8.97239e+16 1.7637e+13 0 8.29822e+15 8.60246e+15 0 4.95159e+15 0 0 0 
275 1 27.2587 9.61526e+16 11345.3 471.798 217.864 6439.54 129.822 0.985019 8.20783e+16 3.08648e+13 0 4.96041e+15 4.83695e+15 0 4.24611e+15 0 0 0 
651 1 24.4288 1.7234e+17 23241.6 891.773 376.513 3945.67 177.769 -0.880119 1.19958e+17 3.5274e+13 0 2.26812e+16 2.30075e+16 0 6.65797e+15 0 0 0 
1163 1 29.8487 2.10577e+17 22765.5 1042.15 433.893 3282.29 225.794 4.17486 1.39183e+17 1.32278e+14 0 3.21435e+16 3.10941e+16 0 8.02484e+15 0 0 0 
1675 1 20.7338 1.46273e+17 22714.8 883.508 359.905 4245.86 200.698 -0.302438 1.03776e+17 3.5274e+13 0 1.87746e+16 1.76899e+16 0 5.99659e+15 0 0 0 
2187 1 24.2087 1.70788e+17 22801.9 989.042 419.2 3650.33 252.968 1.14348 1.14985e+17 8.81851e+13 0 2.49564e+16 2.35631e+16 0 7.1959e+15 0 0 0 
1795 1 25 1.7637e+17 23288.1 984.943 417.653 3267.48 154.971 -1.61855 1.16043e+17 1.05822e+14 0 2.71963e+16 2.56266e+16 0 7.39873e+15 0 0 0 
2307 1 31.9913 2.25692e+17 21423.1 1066.62 478.357 2570 203.365 2.66716 1.42869e+17 1.05822e+14 0 3.80166e+16 3.57855e+16 0 8.91551e+15 0 0 0 
1292 2 30.9488 2.18337e+17 19761 1385.05 518.174 3421.7 481.675 1.93988 1.45929e+17 1.14641e+14 0 3.45245e+16 2.94891e+16 0 8.28058e+15 0 0 0 
2316 2 22.7838 1.60735e+17 19695.3 1289.75 472.376 4257.96 433.85 -1.47418 1.12895e+17 7.93666e+13 0 2.20286e+16 1.9242e+16 0 6.49042e+15 0 0 0 
5252 2 181.791 2.565e+18 7411.85 1572.17 688.302 520.843 61.7357 9.01898 1.49013e+18 1.58733e+15 0 5.40786e+17 4.56464e+17 0 7.60332e+16 0 0 0 
13444 2 162.341 2.29057e+18 5064.72 1337.25 641.077 190.837 118.894 -2.68391 1.34943e+18 1.55206e+15 0 4.82637e+17 3.85175e+17 0 7.17827e+16 0 0 0 
17540 2 343.061 4.84046e+18 2522.92 1106.88 593.791 17.576 109.444 -0.0432642 3.0339e+18 3.86251e+15 0 9.61623e+17 6.92376e+17 0 1.48698e+17 0 0 0 
6276 2 140.442 1.98159e+18 4081.87 1216.24 618.558 68.8782 146.607 4.01013 1.17332e+18 1.37569e+15 0 4.15757e+17 3.22899e+17 0 6.82376e+16 0 0 0 
10372 2 242.539 3.42213e+18 2484.98 1062.79 581.23 0.0557761 126.653 1.93403 2.12598e+18 2.32809e+15 0 6.89025e+17 4.92002e+17 0 1.12789e+17 0 0 0 
14468 2 123.604 1.744e+18 4261.73 1180.92 610.343 86.6221 164.18 3.52226 1.03711e+18 1.67552e+15 0 3.64381e+17 2.83462e+17 0 5.73732e+16 0 0 0 
18564 2 200.489 2.82882e+18 2823.51 1061.61 582.039 27.9808 123.288 -3.01707 1.74028e+18 1.37569e+15 0 5.84385e+17 4.1059e+17 0 9.21887e+16 0 0 0 
5260 2 47.7713 6.74034e+17 11185 1370.72 615.452 1030.62 428.461 4.70121 4.07891e+17 3.35103e+14 0 1.32525e+17 1.09473e+17 0 2.381e+16 0 0 0 
9356 2 56.1625 7.92431e+17 9396.9 1384.47 622.964 868.934 452.42 -0.634017 4.87029e+17 6.70207e+14 0 1.55982e+17 1.22295e+17 0 2.64555e+16 0 0 0 
13452 2 34.8438 4.91632e+17 13863 1416.76 607.933 1502.04 467.385 0.437176 3.04732e+17 2.99829e+14 0 9.17301e+16 7.68621e+16 0 1.80074e+16 0 0 0 
17548 2 38.085 5.37365e+17 12489 1470.43 607.617 1408.79 516.379 -8.83194 3.26567e+17 4.40925e+14 0 1.06898e+17 8.20474e+16 0 2.14113e+16 0 0 0 
6284 2 25.7112 3.62776e+17 16116.8 1430.37 573.342 1978.98 504.852 -4.73162 2.24325e+17 1.94007e+14 0 6.85551e+16 5.63679e+16 0 1.33336e+16 0 0 0 
10380 2 26.78 3.77855e+17 14527.2 1516.09 608.677 1818.21 566.822 1.68934 2.32862e+17 3.17466e+14 0 7.11477e+16 5.99306e+16 0 1.35981e+16 0 0 0 
14476 2 20.5225 2.89565e+17 17798.7 1500.03 557.176 2424.85 510.566 3.03344 1.85771e+17 1.23459e+14 0 5.02302e+16 4.41278e+16 0 9.31235e+15 0 0 0 
18572 2 20.8588 2.94309e+17 17407.6 1445.72 594.976 2490.74 553.735 -0.537097 1.90639e+17 2.29281e+14 0 5.03713e+16 4.29638e+16 0 1.0106e+16 0 0 0 
5380 2 112.794 1.59148e+18 5788.86 1273.73 625.192 276.892 182.082 0.252516 9.44339e+17 1.12877e+15 0 3.27802e+17 2.65755e+17 0 5.24525e+16 0 0 0 
9476 2 178.405 2.51723e+18 3632.99 1151.31 592.761 114.825 147.557 0.978117 1.54781e+18 2.2399e+15 0 5.07787e+17 3.79937e+17 0 7.94548e+16 0 0 0 
13572 2 98.405 1.38846e+18 6008.89 1269.24 616.765 295.673 231.228 -3.20094 8.24143e+17 7.76029e+14 0 2.87342e+17 2.28452e+17 0 4.77434e+16 0 0 0 
17668 2 152.949 2.15805e+18 4084.55 1149.66 604.895 144.954 196.805 4.75435 1.32205e+18 1.14641e+15 0 4.35687e+17 3.32176e+17 0 6.69854e+16 0 0 0 
6404 2 80.82 1.14034e+18 6575.44 1267.77 609.566 361.263 293.388 4.1302 6.88549e+17 8.99488e+14 0 2.34255e+17 1.80744e+17 0 3.58913e+16 0 0 0 
10500 2 120.249 1.69666e+18 4662.56 1193.47 603.855 203.709 265.143 -0.516394 1.02727e+18 1.0935e+15 0 3.4916e+17 2.67483e+17 0 5.16588e+16 0 0 0 
14596 2 63.8387 9.0074e+17 8240.88 1243.05 602.448 579.04 360.452 -1.81241 5.4389e+17 8.11303e+14 0 1.78716e+17 1.46846e+17 0 3.04768e+16 0 0 0 
18692 2 84.0775 1.1863e+18 5980.59 1229.23 599.967 368.238 350.354 -1.32608 7.24776e+17 1.04058e+15 0 2.40199e+17 1.80303e+17 0 3.99831e+16 0 0 0 
8 3 9.0125 1.58954e+16 8153.1 3351.62 917.596 4816.44 -175.293 -5.00984 9.60115e+15 1.10231e+13 0 3.07986e+15 2.62351e+15 0 5.79817e+14 0 0 0 
7 3 7.93875 1.40016e+16 8870.35 3860.73 991.969 4379.56 -327.657 3.9076 8.06673e+15 8.81851e+12 0 2.96743e+15 2.44714e+15 0 5.11474e+14 0 0 0 
80 3 24.8562 8.7678e+16 4991.6 1448.57 445.304 6469.97 26.4858 -1.96956 6.5958e+16 4.40925e+13 0 9.81941e+15 8.69946e+15 0 3.15703e+15 0 0 0 
144 3 24.17 8.52573e+16 4753.84 1400.48 443.445 6542.17 14.3062 -7.43514 6.52217e+16 6.17296e+13 0 8.8141e+15 7.79556e+15 0 3.36426e+15 0 0 0 
208 3 28.3137 9.9874e+16 4706.9 1318.76 405.329 6606.96 118.017 0.779612 7.84362e+16 3.08648e+13 0 9.79736e+15 7.89257e+15 0 3.717e+15 0 0 0 
272 3 27.5487 9.71756e+16 4338.77 1217.39 400.021 6673.35 106.068 1.82442 7.67695e+16 3.96833e+13 0 8.73473e+15 7.89257e+15 0 3.73905e+15 0 0 0 
88 3 27.1487 9.57646e+16 4029.4 1051.45 336.911 6836.26 143.125 -1.24582 7.99045e+16 3.96833e+13 0 6.50806e+15 5.41016e+15 0 3.90219e+15 0 0 0 
152 3 26.8663 9.47681e+16 3677.92 991.264 320.868 6877.26 128.89 -3.41031 7.93137e+16 1.7637e+13 0 6.14209e+15 5.51157e+15 0 3.78314e+15 0 0 0 
216 3 25.7462 9.08174e+16 3353.65 826.149 280.501 7013.27 131.959 -1.02104 7.89697e+16 1.7637e+13 0 4.32989e+15 3.50536e+15 0 3.99478e+15 0 0 0 
280 3 25.9937 9.16904e+16 3119.26 806.122 280.789 7023.53 129.485 -0.373299 7.95782e+16 3.08648e+13 0 4.42248e+15 3.76109e+15 0 3.89778e+15 0 0 0 
96 3 24.915 8.78853e+16 2777.63 617.76 234.656 7127.44 117.385 -0.42409 7.82951e+16 2.64555e+13 0 2.94538e+15 2.51768e+15 0 4.10061e+15 0 0 0 
160 3 25.155 8.87318e+16 2687.29 632.617 242.745 7122.95 121.359 2.98399 7.91241e+16 1.7637e+13 0 3.05561e+15 2.59264e+15 0 3.94187e+15 0 0 0 
224 3 24.2112 8.54029e+16 2399.87 546.229 208.112 7201.49 110.896 0.0190148 7.75456e+16 8.81851e+12 0 2.14731e+15 1.75488e+15 0 3.94628e+15 0 0 0 
288 3 24.095 8.49928e+16 2120.87 482.233 203.555 7231.3 104.709 -2.36631 7.75985e+16 4.40925e+12 0 1.88716e+15 1.65347e+15 0 3.84928e+15 0 0 0 
79 3 27.775 9.79736e+16 5741 1708.46 534.36 6267.21 44.1576 4.55672 7.00895e+16 3.96833e+13 0 1.26987e+16 1.13494e+16 0 3.79637e+15 0 0 0 
143 3 26.2488 9.25899e+16 5371.97 1613.09 472.879 6378.46 29.8092 1.94782 6.78805e+16 2.20463e+13 0 1.09526e+16 1.02162e+16 0 3.51859e+15 0 0 0 
207 3 30.09 1.0614e+17 5479.24 1500.75 445.631 6474.72 152.874 -8.30076 8.19372e+16 4.85018e+13 0 1.0375e+16 9.70036e+15 0 4.07856e+15 0 0 0 
271 3 29.1562 1.02846e+17 4944.34 1359.09 441.233 6560.7 128.035 -0.694831 7.99133e+16 7.49573e+13 0 1.00619e+16 9.00811e+15 0 3.78755e+15 0 0 0 
87 3 28.0225 9.88467e+16 4867.3 1121.93 358.526 6746.88 177.193 0.880222 8.19989e+16 4.40925e+12 0 7.08567e+15 5.89958e+15 0 3.8581e+15 0 0 0 
151 3 27.3987 9.66465e+16 4320.14 1062.09 340.498 6808.88 153.912 0.679638 8.04557e+16 1.7637e+13 0 6.59624e+15 5.70998e+15 0 3.86692e+15 0 0 0 
215 3 26.3362 9.28986e+16 4267.42 831.855 280.687 6923.13 165.188 0.638642 8.00985e+16 8.81851e+12 0 4.6209e+15 3.98156e+15 0 4.18879e+15 0 0 0 
279 3 26.0925 9.20388e+16 3697.41 827.352 262.669 6980.53 148.839 -0.0470746 8.01338e+16 2.64555e+13 0 4.2858e+15 3.74787e+15 0 3.84487e+15 0 0 0 
95 3 25.12 8.86084e+16 3617.85 617.635 225.664 7068.17 148.712 0.0293575 7.89697e+16 1.32278e+13 0 2.99829e+15 2.77342e+15 0 3.85369e+15 0 0 0 
159 3 24.9775 8.81057e+16 3176.55 608.396 244.162 7100.12 135.335 3.36354 7.86567e+16 3.5274e+13 0 2.91893e+15 2.64996e+15 0 3.84487e+15 0 0 0 
223 3 24.2138 8.54117e+16 2960.55 474.693 199.887 7170.2 119.731 4.12739 7.75764e+16 8.81851e+12 0 2.07676e+15 1.77252e+15 0 3.97715e+15 0 0 0 
287 3 24.2975 8.57071e+16 2682.57 516.112 201.858 7181.87 118.652 3.62396 7.80262e+16 1.32278e+13 0 2.0944e+15 1.83866e+15 0 3.73464e+15 0 0 0 
142 3 30.1562 1.06373e+17 6313.19 1824.86 540.505 6135.73 56.4062 2.43193 7.53806e+16 4.40925e+13 0 1.43654e+16 1.29853e+16 0 3.59795e+15 0 0 0 
270 3 31.3362 1.10536e+17 6239.87 1598.1 453.774 6380.14 186.667 6.30709 8.47591e+16 1.7637e+13 0 1.15787e+16 9.80177e+15 0 4.37839e+15 0 0 0 
150 3 28.6412 1.01029e+17 5975.44 1164.47 365.582 6626.94 214.648 -1.01524 8.31894e+16 3.96833e+13 0 7.45164e+15 6.2435e+15 0 4.10502e+15 0 0 0 
278 3 26.7787 9.44595e+16 5234.12 891.866 288.339 6832.19 195.83 2.59601 8.09627e+16 4.40925e+12 0 5.0045e+15 4.25493e+15 0 4.23288e+15 0 0 0 
158 3 25.3788 8.95211e+16 4325.54 624.237 228 7004.9 153.805 3.65717 7.90359e+16 8.81851e+12 0 3.41276e+15 3.08648e+15 0 3.97715e+15 0 0 0 
286 3 24.1 8.50104e+16 3550.21 487.087 206.407 7119.6 132.105 1.82682 7.7109e+16 2.20463e+13 0 2.19581e+15 1.97094e+15 0 3.71259e+15 0 0 0 
5 3 162.857 2.78519e+18 3004.97 1023.97 570.618 115.155 186.777 0.190205 1.79515e+18 2.095e+15 0 5.28516e+17 3.71627e+17 0 8.77974e+16 0 0 0 
5 3 2.0975 1.48859e+16 8898.27 3039.32 992.505 2569.29 -685.254 -38.755 8.25908e+15 8.87119e+12 0 3.28234e+15 2.59926e+15 0 7.36309e+14 0 0 0 
149 3 31.7213 1.11894e+17 10484.4 1216.92 373.484 6147.53 303.156 -0.453986 8.89655e+16 2.20463e+13 0 9.88996e+15 8.30704e+15 0 4.70908e+15 0 0 0 
277 3 27.845 9.82206e+16 8414.47 839.683 292.825 6542.32 231.858 -2.68116 8.2722e+16 1.32278e+13 0 6.05391e+15 5.31756e+15 0 4.11383e+15 0 0 0 
157 3 25.9662 9.15934e+16 6300.46 649.627 235.663 6843.9 170.735 3.17983 8.03454e+16 1.32278e+13 0 4.02565e+15 3.35985e+15 0 3.84928e+15 0 0 0 