ITEM: TIMESTEP
16000
ITEM: NUMBER OF CELLS
240
ITEM: BOX BOUNDS oo ao pp
-10 10
0 10
-0.5 0.5
ITEM: CELLS id proc f_avg_n f_avg_nrho f_avg_temp_tra f_avg_temp_rot f_avg_temp_vib f_avg_vel[1] f_avg_vel[2] f_avg_vel[3] f_avg_nrho_CO2 f_avg_nrho_O2 f_avg_nrho_C2 f_avg_nrho_CO f_avg_nrho_O f_avg_nrho_C f_avg_nrho_N2 f_avg_nrho_N f_avg_nrho_NO f_avg_nrho_CN 
65 0 24.7733 8.73855e+16 6606.03 189.192 154.523 6972.84 8.94376 0.00633838 7.89315e+16 0 0 1.95183e+15 2.50446e+15 0 3.99772e+15 0 0 0 
129 0 26.3833 9.30647e+16 9711.01 246.118 183.599 6683.12 23.1863 0.228526 8.11538e+16 0 0 3.25697e+15 3.83311e+15 0 4.82078e+15 0 0 0 
193 0 24.34 8.5857e+16 6280.78 202.686 156.104 6999.24 8.93266 -2.45042 7.75206e+16 0 0 1.71667e+15 2.575e+15 0 4.04476e+15 0 0 0 
257 0 25.93 9.14656e+16 9494.31 264.136 174.531 6702.49 12.1429 0.992772 8.00485e+16 2.3516e+13 0 3.4451e+15 3.82135e+15 0 4.12706e+15 0 0 0 
66 0 29.65 1.04588e+17 13813.1 384.098 210.569 6236.09 29.0786 3.13898 8.74091e+16 1.1758e+13 0 5.62033e+15 6.86668e+15 0 4.67969e+15 0 0 0 
130 0 34.3433 1.21143e+17 19062.4 540.943 279.479 5462.53 40.7359 -0.789393 9.39818e+16 0 0 1.03941e+16 1.13112e+16 0 5.45572e+15 0 0 0 
194 0 28.5 1.00531e+17 14253.4 399.844 210.344 6184.04 30.1583 -0.184091 8.42109e+16 2.3516e+13 0 5.3499e+15 6.37284e+15 0 4.57387e+15 0 0 0 
258 0 32.9833 1.16346e+17 19169.7 573.478 263.041 5447.14 59.5109 3.00982 9.08659e+16 2.3516e+13 0 9.8297e+15 1.07468e+16 0 4.87958e+15 0 0 0 
579 0 29.41 2.07482e+17 16252.4 562.109 254.499 5861.02 63.4844 -17.3823 1.67857e+17 2.3516e+13 0 1.55911e+16 1.48386e+16 0 9.17125e+15 0 0 0 
1091 0 32.8767 2.31939e+17 18382.7 784.438 289.342 5487.16 66.6106 5.05554 1.80462e+17 0 0 2.11644e+16 2.04589e+16 0 9.85321e+15 0 0 0 
1603 0 17.9 1.26281e+17 23763.9 696.779 343.839 3923 24.2659 -14.432 8.67036e+16 4.7032e+13 0 1.56382e+16 1.78016e+16 0 6.09065e+15 0 0 0 
2115 0 21.7333 1.53324e+17 23291.9 1121.27 416.464 3285.62 36.928 10.4903 1.00602e+17 4.7032e+13 0 2.29046e+16 2.29046e+16 0 6.86668e+15 0 0 0 
707 0 21.66 1.52807e+17 21458.7 783.436 315.553 4907.79 55.5655 -4.29346 1.13488e+17 9.40641e+13 0 1.56146e+16 1.66493e+16 0 6.96074e+15 0 0 0 
1219 0 24.7833 1.74842e+17 23223.1 903.942 348.306 4256.25 89.8528 2.36685 1.24047e+17 2.3516e+13 0 2.19875e+16 2.23873e+16 0 6.39636e+15 0 0 0 
643 0 37.5033 2.64579e+17 21802.4 1012.77 325.734 4650.29 55.2766 11.2459 1.91773e+17 7.05481e+13 0 3.20523e+16 3.18642e+16 0 8.81851e+15 0 0 0 
1667 0 28.22 1.99087e+17 21824 971.718 439.719 2553.47 75.1539 -9.33847 1.23577e+17 1.1758e+14 0 3.2358e+16 3.50859e+16 0 7.94842e+15 0 0 0 
2179 0 36.76 2.59335e+17 18967.5 1117.2 531.382 1869.56 81.9104 23.6935 1.57181e+17 7.05481e+13 0 4.56211e+16 4.6985e+16 0 9.47696e+15 0 0 0 
771 0 29.42 2.07552e+17 23397.4 932.222 388.819 3445.04 115.28 -2.69812 1.38509e+17 4.7032e+13 0 2.8619e+16 3.19112e+16 0 8.46577e+15 0 0 0 
1283 0 38.7767 2.73562e+17 21531.1 1111.01 491.991 2619.74 133.874 3.56989 1.71361e+17 2.11644e+14 0 4.67499e+16 4.50097e+16 0 1.02295e+16 0 0 0 
5251 0 28.54 4.02688e+17 18121.8 858.541 336.613 5289.95 66.0564 3.98805 2.93809e+17 4.7032e+13 0 4.08238e+16 5.10298e+16 0 1.69786e+16 0 0 0 
9347 0 30.9767 4.37069e+17 19816.1 1191.79 419.941 4854.5 32.4256 13.5197 3.11587e+17 1.41096e+14 0 6.08595e+16 4.99951e+16 0 1.44859e+16 0 0 0 
13443 0 19.48 2.74855e+17 22680.3 1126.26 447.357 3324.6 44.5138 2.86727 1.77452e+17 2.3516e+14 0 4.41631e+16 4.15293e+16 0 1.14758e+16 0 0 0 
17539 0 21.9833 3.10176e+17 21978.1 1242.39 466.052 2993.15 72.8369 -0.80128 1.93631e+17 7.52513e+14 0 5.22526e+16 4.72672e+16 0 1.62731e+16 0 0 0 
4676 0 35.32 4.98352e+17 21194.8 1189.77 451.09 4242.18 67.5829 -1.09417 3.27954e+17 1.88128e+14 0 7.1912e+16 7.58627e+16 0 2.24343e+16 0 0 0 
8772 0 41.0267 5.7887e+17 21673.4 1429.66 504.031 3853.53 69.1969 7.77142 3.71177e+17 3.76256e+14 0 8.81851e+16 9.67449e+16 0 2.23873e+16 0 0 0 
12868 0 27.0767 3.82041e+17 20752.5 1231.15 516.345 2545.37 81.7036 20.7706 2.33044e+17 1.88128e+14 0 6.91371e+16 6.40577e+16 0 1.56146e+16 0 0 0 
16964 0 32.63 4.60397e+17 19131.9 1366.37 559.121 2129.68 69.6638 -5.44523 2.72927e+17 1.88128e+14 0 8.55513e+16 8.72915e+16 0 1.44388e+16 0 0 0 
5188 0 46.8367 6.60847e+17 21332.5 1470.69 551.512 3146.36 35.5447 -13.415 4.21501e+17 3.29224e+14 0 1.11983e+17 1.04129e+17 0 2.29046e+16 0 0 0 
9284 0 57.4233 8.10221e+17 19113.5 1511.26 605.122 2455.71 45.1361 -0.725344 4.79163e+17 5.17353e+14 0 1.55629e+17 1.46975e+17 0 2.7937e+16 0 0 0 
13380 0 39.74 5.60716e+17 16793.1 1366.46 588.147 1657.82 67.1576 0.0029471 3.26873e+17 4.7032e+14 0 1.08926e+17 1.01824e+17 0 2.26224e+16 0 0 0 
17476 0 50.3633 7.10607e+17 13994.4 1555.77 629.514 1250.25 68.1933 -0.932859 3.99678e+17 3.29224e+14 0 1.44671e+17 1.37569e+17 0 2.83603e+16 0 0 0 
5700 0 24.4 3.44275e+17 16563.4 1281.51 583.466 1535.69 86.1533 -5.40679 1.98522e+17 1.88128e+14 0 6.93723e+16 6.34462e+16 0 1.27457e+16 0 0 0 
9796 0 30.1267 4.25076e+17 14026.4 1271.64 573.136 1069.24 97.7295 -1.67373 2.47577e+17 2.3516e+14 0 8.16947e+16 8.04718e+16 0 1.50973e+16 0 0 0 
13892 0 24.4633 3.45168e+17 16663 1170.33 533.916 1493.73 83.2601 7.859 2.02849e+17 1.88128e+14 0 6.56097e+16 6.1659e+16 0 1.48621e+16 0 0 0 
17988 0 29.11 4.10731e+17 14114.6 1209.25 605.659 1110.47 128.424 0.666383 2.35772e+17 1.88128e+14 0 8.08951e+16 7.7791e+16 0 1.6085e+16 0 0 0 
6212 0 37.4767 5.28781e+17 12230.3 1266.49 581.702 845.164 99.7985 4.69327 3.03639e+17 4.23288e+14 0 1.10243e+17 9.29824e+16 0 2.14936e+16 0 0 0 
10308 0 48.4967 6.84269e+17 9116.29 1281.96 654.398 492.955 109.799 -9.76465 3.87826e+17 5.17353e+14 0 1.4627e+17 1.27128e+17 0 2.25284e+16 0 0 0 
14404 0 37.16 5.24313e+17 12255.1 1216.04 599.839 875.261 139.483 -23.8938 3.03075e+17 3.76256e+14 0 1.03376e+17 9.64627e+16 0 2.10233e+16 0 0 0 
18500 0 46.88 6.61459e+17 9697.12 1213.51 583.943 563.414 153.312 1.57159 3.80395e+17 1.88128e+14 0 1.35311e+17 1.22754e+17 0 2.28105e+16 0 0 0 
4804 0 25.06 3.53587e+17 19427.8 1223.67 553.1 2136.17 146.597 -1.40385 2.12914e+17 9.40641e+13 0 6.21764e+16 6.44809e+16 0 1.39215e+16 0 0 0 
8900 0 30.1733 4.25734e+17 17777.6 1410.48 551.99 1775.36 158.17 -13.259 2.5275e+17 1.41096e+14 0 8.26823e+16 7.47339e+16 0 1.54265e+16 0 0 0 
12996 0 22.77 3.21276e+17 19259.6 1309.26 534.816 2099.22 175.312 -9.39877 1.95606e+17 1.41096e+14 0 5.74261e+16 5.68617e+16 0 1.12407e+16 0 0 0 
17092 0 26.49 3.73764e+17 17338.4 1220.82 552.61 1690.99 187.109 8.47639 2.2185e+17 1.88128e+14 0 7.16768e+16 6.52805e+16 0 1.47681e+16 0 0 0 
5316 0 35.2067 4.96752e+17 14699.2 1266.38 573.691 1225.24 177.465 -7.1343 2.99641e+17 1.88128e+14 0 9.36878e+16 8.6586e+16 0 1.66493e+16 0 0 0 
9412 0 45.5767 6.43069e+17 13220.2 1262.81 576.48 1070.17 189.329 -1.25901 3.78702e+17 1.41096e+14 0 1.22707e+17 1.17956e+17 0 2.35631e+16 0 0 0 
13508 0 33.4533 4.72014e+17 16306.6 1195.86 558.233 1547.49 221.536 -9.87711 2.80452e+17 2.3516e+14 0 8.96901e+16 8.43755e+16 0 1.72608e+16 0 0 0 
17604 0 40.75 5.74967e+17 13443 1309.72 599.061 1134.22 240.813 5.52858 3.39148e+17 5.17353e+14 0 1.13347e+17 1.01401e+17 0 2.0553e+16 0 0 0 
4868 0 57.5533 8.12055e+17 9913.49 1367.01 594.316 647.441 195.832 -1.45159 4.69803e+17 5.17353e+14 0 1.72137e+17 1.40532e+17 0 2.90658e+16 0 0 0 
8964 0 78.34 1.10535e+18 7624.55 1249.2 617.166 430.012 201.001 -0.305115 6.34556e+17 7.05481e+14 0 2.3389e+17 1.95324e+17 0 4.08709e+16 0 0 0 
13060 0 52.2633 7.37415e+17 10023.1 1289.24 608.13 692.754 248.873 -5.19811 4.30202e+17 4.7032e+14 0 1.50079e+17 1.30702e+17 0 2.59617e+16 0 0 0 
17156 0 67.94 9.58607e+17 8650.43 1241.77 633.455 556.346 246.529 -12.3392 5.66877e+17 5.17353e+14 0 1.97252e+17 1.62778e+17 0 3.11822e+16 0 0 0 
4740 0 73.5667 1.038e+18 16121.2 1608.49 634.24 1776.41 46.8018 -4.06666 5.97683e+17 7.99545e+14 0 2.16583e+17 1.95606e+17 0 2.73256e+16 0 0 0 
8836 0 107.383 1.51514e+18 12032.7 1777.86 675.016 1115.78 60.9147 9.21884 8.57912e+17 1.03471e+15 0 3.16996e+17 2.8445e+17 0 5.47453e+16 0 0 0 
12932 0 67.6667 9.54751e+17 10796.4 1415 631.55 775.597 81.5602 -6.7431 5.44208e+17 7.52513e+14 0 1.95465e+17 1.81873e+17 0 3.24521e+16 0 0 0 
17028 0 99.5533 1.40466e+18 8333.33 1445.92 626.819 518.083 98.7782 -1.92649 8.01661e+17 1.12877e+15 0 3.00017e+17 2.55666e+17 0 4.61855e+16 0 0 0 
5764 0 64.9167 9.15949e+17 7735.82 1292.5 648.276 363.032 130.04 1.5125 5.08228e+17 6.11417e+14 0 1.98993e+17 1.7463e+17 0 3.34868e+16 0 0 0 
9860 0 91.4233 1.28995e+18 5533.43 1284.07 615.635 151.516 136.066 -9.14723 7.42589e+17 7.99545e+14 0 2.73444e+17 2.28435e+17 0 4.46804e+16 0 0 0 
13956 0 61.9267 8.73761e+17 7942.12 1280.79 618.885 386.79 148.484 -8.69876 5.03619e+17 8.46577e+14 0 1.7891e+17 1.59533e+17 0 3.0853e+16 0 0 0 
18052 0 84.71 1.19523e+18 5852.35 1182.24 600.761 191.507 162.806 -3.39688 7.04352e+17 7.99545e+14 0 2.45648e+17 2.03978e+17 0 4.04476e+16 0 0 0 
84 1 33.77 1.1912e+17 17401.1 786.098 321.593 5497.85 236.288 -3.82059 9.29001e+16 1.1758e+13 0 1.05822e+16 1.04294e+16 0 5.19704e+15 0 0 0 
212 1 28.5833 1.00825e+17 12266.7 614.055 241.8 6276.61 169.157 1.19307 8.47635e+16 1.1758e+13 0 6.06713e+15 5.91428e+15 0 4.06827e+15 0 0 0 
92 1 26.0067 9.1736e+16 8366.57 490.528 221.623 6719.28 123.721 -1.51656 8.01309e+16 0 0 3.75081e+15 3.64498e+15 0 4.20937e+15 0 0 0 
220 1 24.39 8.60334e+16 5391.72 277.313 179.762 7019.8 82.2534 -0.236389 7.77557e+16 0 0 2.2693e+15 2.21051e+15 0 3.79784e+15 0 0 0 
588 1 37.4733 2.64367e+17 21328.9 1076.55 476.569 2750.82 284.64 3.01761 1.69151e+17 7.05481e+13 0 4.31284e+16 4.12706e+16 0 1.07468e+16 0 0 0 
1612 1 28.6067 2.01815e+17 21946.8 1051.13 458.783 3119.94 304.419 4.55084 1.32466e+17 7.05481e+13 0 3.16761e+16 2.91834e+16 0 8.41874e+15 0 0 0 
2124 1 33.97 2.39652e+17 20159.5 1195.07 502.154 2550.9 390.545 1.28516 1.53842e+17 7.05481e+13 0 3.94599e+16 3.69907e+16 0 9.28883e+15 0 0 0 
716 1 24.5 1.72843e+17 22351.6 964.834 395.044 3922.29 302.259 5.84771 1.20426e+17 9.40641e+13 0 2.38452e+16 2.10939e+16 0 7.38403e+15 0 0 0 
1228 1 26.91 1.89845e+17 21833.7 1137.09 439.31 3663.11 363.006 6.90526 1.28821e+17 2.3516e+14 0 2.85955e+16 2.42685e+16 0 7.9249e+15 0 0 0 
1740 1 19.7967 1.39662e+17 21258.1 1009.13 412.96 4596.73 287.417 -6.81859 1.026e+17 0 0 1.6085e+16 1.47681e+16 0 6.20823e+15 0 0 0 
2252 1 21.1067 1.48903e+17 21542.9 1045.07 431.486 4209.28 353.281 0.0174722 1.05493e+17 9.40641e+13 0 1.94478e+16 1.81073e+16 0 5.76143e+15 0 0 0 
148 1 35.5167 1.25282e+17 16999.6 944.803 333.966 5390.33 306.616 0.367653 9.59924e+16 4.7032e+13 0 1.23106e+16 1.14523e+16 0 5.47923e+15 0 0 0 
276 1 28.71 1.01272e+17 11836 762.86 276.963 6273.23 215.432 -1.73212 8.41051e+16 1.1758e+13 0 6.47866e+15 6.19647e+15 0 4.4798e+15 0 0 0 
156 1 25.9433 9.15126e+16 7630.86 502.75 216.854 6772.86 139.852 0.39913 8.0025e+16 0 0 3.78608e+15 3.51565e+15 0 4.18585e+15 0 0 0 
284 1 24.6033 8.67859e+16 5562.91 326.592 185.96 6995.34 106.702 -0.899121 7.82848e+16 0 0 2.52797e+15 2.1282e+15 0 3.84487e+15 0 0 0 
780 1 29.7067 2.09575e+17 20814.2 1228.95 502.625 3366.46 433.514 0.920411 1.41661e+17 1.1758e+14 0 3.13704e+16 2.7843e+16 0 8.58335e+15 0 0 0 
1804 1 22.7333 1.60379e+17 20715.1 1044.42 421.146 4275.48 378.052 -5.06139 1.14547e+17 2.3516e+13 0 2.03414e+16 1.80368e+16 0 7.43106e+15 0 0 0 
5196 1 24.4267 3.44651e+17 19447.5 1130.07 515.218 2220.91 288.478 -4.98391 2.14607e+17 3.29224e+14 0 6.25997e+16 5.44631e+16 0 1.26516e+16 0 0 0 
9292 1 28.4767 4.01795e+17 17358.1 1219.27 557.114 1810.16 339.962 -5.118 2.46683e+17 1.41096e+14 0 7.36522e+16 6.73969e+16 0 1.39215e+16 0 0 0 
13388 1 20.8833 2.94656e+17 19851 1179.44 597.666 2439.28 329.672 -10.06 1.85024e+17 9.40641e+13 0 5.39928e+16 4.59503e+16 0 9.59454e+15 0 0 0 
17484 1 23.6233 3.33316e+17 18427 1283.39 510.583 2051.47 374.753 17.6082 2.06518e+17 5.64385e+14 0 5.7238e+16 5.69558e+16 0 1.20402e+16 0 0 0 
5828 1 20.6667 2.91599e+17 19007.9 1097.89 470.753 1944.43 223.355 6.07949 1.73501e+17 5.17353e+14 0 5.45572e+16 5.14531e+16 0 1.15699e+16 0 0 0 
9924 1 24.82 3.50201e+17 17303.7 1186.62 557.38 1728.76 222.723 -2.1346 2.10468e+17 2.3516e+14 0 6.4528e+16 6.33522e+16 0 1.16169e+16 0 0 0 
14020 1 19.2433 2.71516e+17 19755.9 1053.69 499.637 2134.46 233.502 4.087 1.71808e+17 1.41096e+14 0 4.37398e+16 4.37868e+16 0 1.20402e+16 0 0 0 
18116 1 22.1867 3.13045e+17 18359.6 1151.52 581.097 1906.21 260.829 -0.129457 1.92173e+17 1.88128e+14 0 5.62503e+16 5.19704e+16 0 1.24635e+16 0 0 0 
6340 1 28.94 4.08332e+17 14673.2 1327.51 539.221 1273.66 259.04 2.66435 2.39958e+17 1.88128e+14 0 8.09422e+16 7.36522e+16 0 1.35923e+16 0 0 0 
10436 1 35.6767 5.03384e+17 12956.3 1278.02 594.924 1049.04 290.383 4.1745 2.9602e+17 2.3516e+14 0 1.03423e+17 8.63038e+16 0 1.74019e+16 0 0 0 
14532 1 26.5 3.73905e+17 16218.4 1221.52 566.796 1565.5 295.906 0.47456 2.23637e+17 9.40641e+13 0 7.43106e+16 6.44339e+16 0 1.14288e+16 0 0 0 
18628 1 31.81 4.48827e+17 13740.5 1296.11 569.15 1171.71 315.936 1.35694 2.68741e+17 2.82192e+14 0 8.55513e+16 7.85906e+16 0 1.56617e+16 0 0 0 
5892 1 45.4533 6.41329e+17 10523.3 1137.07 589.556 742.596 296.806 -5.82074 3.76868e+17 3.29224e+14 0 1.29009e+17 1.10525e+17 0 2.45978e+16 0 0 0 
9988 1 58.8733 8.3068e+17 8911.07 1341.25 604.038 595.401 285.325 3.30986 4.90685e+17 8.93609e+14 0 1.76888e+17 1.34371e+17 0 2.7843e+16 0 0 0 
14084 1 38.6933 5.45948e+17 12375.3 1280.55 616.014 1011.14 327.24 8.23906 3.2485e+17 2.82192e+14 0 1.08221e+17 9.23709e+16 0 2.02238e+16 0 0 0 
18180 1 49.1467 6.93441e+17 9634.63 1197.51 586.256 689.405 357.062 -2.57045 4.13976e+17 6.11417e+14 0 1.3945e+17 1.17627e+17 0 2.17758e+16 0 0 0 
4748 1 32.8867 4.64018e+17 14939.9 1384.46 612.579 1481.57 378.768 -7.59047 2.8398e+17 3.29224e+14 0 8.74326e+16 7.51572e+16 0 1.71197e+16 0 0 0 
8844 1 39.51 5.57471e+17 12672.6 1260.09 573.234 1173.09 394.755 4.91943 3.36279e+17 6.58449e+14 0 1.10196e+17 9.21828e+16 0 1.81544e+16 0 0 0 
12940 1 27.3567 3.85992e+17 16947.9 1291.75 568.509 1890.79 386.556 10.115 2.41227e+17 3.76256e+14 0 7.03129e+16 5.99659e+16 0 1.41096e+16 0 0 0 
17036 1 31.13 4.39232e+17 14897.7 1364.91 571.344 1571.21 430.455 -2.56542 2.68365e+17 1.88128e+14 0 8.55983e+16 7.05951e+16 0 1.44859e+16 0 0 0 
5772 1 21.3267 3.00911e+17 17744.2 1372.59 554.297 2145.16 438.493 9.77536 1.83989e+17 1.88128e+14 0 5.36636e+16 5.07476e+16 0 1.23224e+16 0 0 0 
9868 1 23.97 3.38207e+17 16156 1322.69 603.987 1910.18 487.91 7.53297 2.08352e+17 3.76256e+14 0 6.58919e+16 5.33814e+16 0 1.0206e+16 0 0 0 
13964 1 17.46 2.46354e+17 19268.1 1229.43 507.902 2431.3 457.831 -19.4177 1.57416e+17 9.40641e+13 0 4.31754e+16 3.6638e+16 0 9.03015e+15 0 0 0 
18060 1 19.1267 2.6987e+17 18486.4 1347.5 584.747 2468.14 488.223 17.0029 1.71949e+17 6.58449e+14 0 4.56681e+16 4.16704e+16 0 9.92376e+15 0 0 0 
73 1 24.47 8.63156e+16 6079.65 193.823 155.952 7014.15 11.9161 3.56806 7.84847e+16 0 0 1.78722e+15 2.28105e+15 0 3.76256e+15 0 0 0 
137 1 25.35 8.94197e+16 8998.22 248.56 179.204 6749.63 27.788 -0.707801 7.8861e+16 2.3516e+13 0 3.02181e+15 3.65674e+15 0 3.85663e+15 0 0 0 
201 1 23.58 8.31762e+16 4911.41 180.754 156.342 7115.71 14.2666 1.91128 7.58745e+16 1.1758e+13 0 1.34041e+15 1.96359e+15 0 3.98597e+15 0 0 0 
265 1 25.44 8.97371e+16 7652.01 241.437 164.1 6872.98 26.8226 -2.95862 8.02132e+16 1.1758e+13 0 2.41039e+15 3.23345e+15 0 3.86839e+15 0 0 0 
81 1 23.6067 8.32702e+16 4298.9 179.353 152.149 7156.9 21.3817 -1.74361 7.65682e+16 2.3516e+13 0 1.23459e+15 1.70491e+15 0 3.73905e+15 0 0 0 
145 1 24.5533 8.66095e+16 5964.8 243.529 157.545 7016.25 29.6925 0.780036 7.83907e+16 1.1758e+13 0 1.88128e+15 2.46918e+15 0 3.85663e+15 0 0 0 
209 1 23.4767 8.28117e+16 3532.21 159.822 147.381 7222.13 14.5878 -0.929859 7.61919e+16 0 0 1.12877e+15 1.49327e+15 0 3.99772e+15 0 0 0 
273 1 23.7833 8.38934e+16 4617.93 195.491 153.314 7126.97 26.5252 -3.25561 7.73442e+16 0 0 1.12877e+15 1.74019e+15 0 3.68026e+15 0 0 0 
89 1 23.1833 8.1777e+16 2958.46 181.077 144.4 7265.1 15.0324 -3.69145 7.61214e+16 0 0 8.58335e+14 1.15229e+15 0 3.64498e+15 0 0 0 
153 1 23.5033 8.29057e+16 3640.36 189.84 151.706 7209.56 26.7748 -0.00967674 7.65799e+16 0 0 1.05822e+15 1.48151e+15 0 3.78608e+15 0 0 0 
217 1 23.1333 8.16006e+16 2196.5 166.295 151.398 7317.34 14.688 0.487629 7.63448e+16 0 0 5.76143e+14 9.75915e+14 0 3.70377e+15 0 0 0 
281 1 23.4067 8.25648e+16 2755.87 184.14 152.803 7276.16 23.0035 1.24825 7.66622e+16 0 0 9.52399e+14 1.14053e+15 0 3.8096e+15 0 0 0 
74 1 27.3933 9.66273e+16 12736.9 344.821 206.476 6345.79 47.0449 -2.2399 8.1436e+16 3.5274e+13 0 5.19704e+15 5.73791e+15 0 4.22113e+15 0 0 0 
138 1 31.3233 1.1049e+17 17740.4 522.736 242.601 5678.88 84.9377 -2.811 8.81028e+16 5.87901e+13 0 8.40698e+15 9.23004e+15 0 4.69145e+15 0 0 0 
202 1 26.0433 9.18653e+16 10733 331.169 194.066 6562.94 46.0195 -1.18378 7.9684e+16 1.1758e+13 0 3.86839e+15 4.56211e+15 0 3.73905e+15 0 0 0 
266 1 28.8733 1.01848e+17 14187 469.971 230.659 6154.02 78.6343 -0.862902 8.45989e+16 2.3516e+13 0 6.18471e+15 6.63152e+15 0 4.40925e+15 0 0 0 
82 1 25.54 9.00899e+16 8663.49 269.378 172.982 6770.03 46.848 -2.36044 7.94724e+16 1.1758e+13 0 2.88071e+15 3.4451e+15 0 4.27992e+15 0 0 0 
146 1 27.2633 9.61688e+16 11696.8 393.06 202.008 6444.51 76.0902 -2.08768 8.22003e+16 0 0 4.45629e+15 5.13825e+15 0 4.37398e+15 0 0 0 
210 1 24.8133 8.75266e+16 6545.07 247.854 168.238 6961.1 41.8389 1.73361 7.88022e+16 3.5274e+13 0 2.08117e+15 2.64555e+15 0 3.96245e+15 0 0 0 
274 1 25.3467 8.94079e+16 8042.18 329.662 185.773 6812.67 58.4853 1.11724 7.90726e+16 0 0 3.28049e+15 3.16291e+15 0 3.8919e+15 0 0 0 
90 1 23.9367 8.44343e+16 4558.62 202.033 153.264 7128.19 31.8551 0.772712 7.70267e+16 1.1758e+13 0 1.42272e+15 2.04589e+15 0 3.92718e+15 0 0 0 
154 1 24.31 8.57512e+16 5342.19 251.448 168.68 7046.99 49.0409 -2.91818 7.76499e+16 0 0 1.88128e+15 2.37512e+15 0 3.84487e+15 0 0 0 
218 1 23.1067 8.15065e+16 3110.28 176.116 151.703 7245.05 29.8454 -1.74854 7.59568e+16 0 0 8.11303e+14 1.18756e+15 0 3.55092e+15 0 0 0 
282 1 23.71 8.36347e+16 4076.66 252.551 156.596 7154.83 42.2558 0.438774 7.69327e+16 1.1758e+13 0 1.32866e+15 1.66964e+15 0 3.69202e+15 0 0 0 
91 1 25.21 8.89258e+16 6808.82 318.943 174.615 6912.3 68.7921 -0.201881 7.96723e+16 3.5274e+13 0 2.29281e+15 2.70434e+15 0 4.22113e+15 0 0 0 
219 1 24.3067 8.57394e+16 4424.34 247.029 163.813 7117.39 52.9697 -1.69838 7.84612e+16 0 0 1.65788e+15 1.6814e+15 0 3.93893e+15 0 0 0 
75 1 37.6367 1.3276e+17 21551.3 692.32 316.791 4862.95 130.382 -1.14336 9.89789e+16 1.1758e+14 0 1.38157e+16 1.44741e+16 0 5.37341e+15 0 0 0 
203 1 33.0933 1.16734e+17 18496.7 598.038 275.992 5493.1 134.448 -0.883254 9.09835e+16 1.1758e+13 0 9.80618e+15 1.04411e+16 0 5.49099e+15 0 0 0 
83 1 28.7333 1.01354e+17 14451.4 451.347 224.784 6093.47 122.126 -0.728066 8.36818e+16 1.1758e+13 0 6.40812e+15 6.65503e+15 0 4.59738e+15 0 0 0 
211 1 26.38 9.30529e+16 9996.86 377.27 195.952 6605.27 90.4471 -2.89633 8.07775e+16 0 0 3.86839e+15 4.37398e+15 0 4.033e+15 0 0 0 
1731 1 17.9633 1.26728e+17 22340.9 703.375 305.088 4647.94 87.8428 -13.3784 9.16419e+16 7.05481e+13 0 1.44388e+16 1.40861e+16 0 6.49042e+15 0 0 0 
2243 1 21.2833 1.5015e+17 23238.7 888.107 358.123 3945.18 121.984 10.4144 1.02906e+17 9.40641e+13 0 2.18464e+16 1.96594e+16 0 5.64385e+15 0 0 0 
155 1 25.2433 8.90434e+16 7899.24 390.723 189.921 6806.79 95.4092 2.85216 7.83319e+16 0 0 3.02181e+15 3.18642e+15 0 4.50332e+15 0 0 0 
283 1 24.0033 8.46694e+16 4582.84 270.826 177.573 7101.38 64.1808 -5.84712 7.68974e+16 0 0 1.61085e+15 1.9871e+15 0 4.17409e+15 0 0 0 
267 1 38.24 1.34888e+17 21059.6 737.835 335.705 4806.9 212.796 2.70299 9.96021e+16 1.1758e+13 0 1.52031e+16 1.44859e+16 0 5.58506e+15 0 0 0 
147 1 31.7333 1.11936e+17 16687.4 597.805 274.643 5731.37 173.55 -3.79409 8.93844e+16 1.1758e+13 0 8.99488e+15 8.54807e+15 0 4.99716e+15 0 0 0 
275 1 27.35 9.64745e+16 11396.9 507.15 221.823 6430.21 133.363 -1.85607 8.2212e+16 3.5274e+13 0 4.96188e+15 4.67969e+15 0 4.58562e+15 0 0 0 
651 1 25.1367 1.77334e+17 23093.7 1018.55 393.728 3946.59 174.688 8.15129 1.22824e+17 2.3516e+13 0 2.33514e+16 2.46918e+16 0 6.44339e+15 0 0 0 
1163 1 29.5633 2.08564e+17 22591.8 1096.59 437.827 3222.56 233.38 7.32129 1.3597e+17 1.64612e+14 0 3.26638e+16 3.19348e+16 0 7.83084e+15 0 0 0 
1675 1 20.7 1.46035e+17 22703.7 869.811 347.469 4254.47 205.911 -0.290978 1.04505e+17 0 0 1.87188e+16 1.72608e+16 0 5.54978e+15 0 0 0 
2187 1 24.5467 1.73172e+17 22668.5 984.879 446.601 3610.05 256.326 -0.475131 1.15064e+17 7.05481e+13 0 2.65026e+16 2.40569e+16 0 7.4781e+15 0 0 0 
1795 1 25.2833 1.78369e+17 23118 967.484 412.552 3331.05 150.059 3.01248 1.16099e+17 1.64612e+14 0 2.75608e+16 2.66672e+16 0 7.87787e+15 0 0 0 
2307 1 32.28 2.27729e+17 21598.6 960.801 470.897 2593.2 197.132 0.121324 1.44835e+17 1.1758e+14 0 3.80254e+16 3.63323e+16 0 8.41874e+15 0 0 0 
1292 2 30.81 2.17359e+17 19665.4 1404.45 511.119 3437.11 477.174 3.10266 1.45729e+17 4.7032e+13 0 3.32987e+16 2.97243e+16 0 8.55983e+15 0 0 0 
2316 2 22.02 1.55347e+17 19603.9 1349.66 464.712 4311.63 435.648 -2.16997 1.09373e+17 1.1758e+14 0 2.09763e+16 1.84836e+16 0 6.39636e+15 0 0 0 
5252 2 184.84 2.60802e+18 7573.14 1602.31 702.078 541.024 68.6955 14.296 1.52962e+18 1.59909e+15 0 5.39317e+17 4.56822e+17 0 8.066e+16 0 0 0 
13444 2 163.71 2.30989e+18 5032.57 1306.05 642.865 185.161 117.2 -3.07944 1.36426e+18 1.41096e+15 0 4.82314e+17 3.91401e+17 0 7.0501e+16 0 0 0 
17540 2 343.447 4.8459e+18 2534.87 1113.88 594.247 17.7028 107.887 3.18462 3.04396e+18 3.95069e+15 0 9.60065e+17 6.91559e+17 0 1.46364e+17 0 0 0 
6276 2 140.387 1.9808e+18 4075.06 1227.01 622.651 69.2762 149.95 4.23778 1.16809e+18 8.93609e+14 0 4.16563e+17 3.2946e+17 0 6.57978e+16 0 0 0 
10372 2 243.09 3.42991e+18 2524.72 1058.56 580.193 2.58971 127.253 -2.132 2.13065e+18 1.69315e+15 0 6.91277e+17 4.91814e+17 0 1.14476e+17 0 0 0 
14468 2 123.007 1.73558e+18 4244.61 1193.67 606.632 86.9656 167.9 4.41511 1.02008e+18 2.4927e+15 0 3.71553e+17 2.82192e+17 0 5.92604e+16 0 0 0 
18564 2 200.083 2.8231e+18 2729.21 1049.15 575.454 15.0543 121.146 -1.87933 1.7233e+18 8.93609e+14 0 5.91146e+17 4.16375e+17 0 9.13833e+16 0 0 0 
5260 2 48.09 6.78531e+17 11145 1418.93 615.821 1008.35 439.249 7.48844 4.15716e+17 4.7032e+14 0 1.30561e+17 1.11043e+17 0 2.07411e+16 0 0 0 
9356 2 55.17 7.78427e+17 9831.59 1348.56 616.288 905.955 454.631 3.52978 4.84665e+17 8.46577e+14 0 1.49891e+17 1.16592e+17 0 2.6432e+16 0 0 0 
13452 2 34.5367 4.87299e+17 13666.6 1368.31 612.062 1481.9 473.405 -3.67443 2.98465e+17 2.82192e+14 0 9.45344e+16 7.6333e+16 0 1.76841e+16 0 0 0 
17548 2 38.34 5.40963e+17 12561.3 1434.83 612.55 1429.64 520.029 -8.50009 3.2993e+17 3.29224e+14 0 1.07045e+17 8.28705e+16 0 2.07882e+16 0 0 0 
6284 2 25.83 3.64451e+17 15940.9 1413.08 556.992 1925.67 507.843 -14.1617 2.26318e+17 3.29224e+14 0 6.9043e+16 5.50745e+16 0 1.36863e+16 0 0 0 
10380 2 27.4933 3.8792e+17 15051.1 1550.6 613.516 1899.86 555.662 2.52208 2.45931e+17 5.17353e+14 0 7.02659e+16 5.88841e+16 0 1.23224e+16 0 0 0 
14476 2 20.5933 2.90564e+17 17739.8 1569.47 586.023 2439.43 506 -0.509531 1.87564e+17 1.88128e+14 0 5.09827e+16 4.2611e+16 0 9.21828e+15 0 0 0 
18572 2 20.9033 2.94938e+17 17367.5 1472.14 579.101 2468.03 547.601 -4.323 1.93208e+17 3.76256e+14 0 4.74083e+16 4.36928e+16 0 1.0253e+16 0 0 0 
5380 2 113.66 1.6037e+18 5893 1236.9 614.583 287.084 185.236 2.01024 9.45909e+17 9.87673e+14 0 3.33739e+17 2.70811e+17 0 5.22526e+16 0 0 0 
9476 2 177.613 2.50606e+18 3773.02 1163.81 591.986 135.794 145.075 -2.16122 1.54232e+18 1.74019e+15 0 4.98399e+17 3.84675e+17 0 7.89198e+16 0 0 0 
13572 2 98.4433 1.389e+18 6312.48 1300.62 613.068 335.849 230.658 -6.45104 8.17699e+17 7.52513e+14 0 2.88871e+17 2.31821e+17 0 4.9854e+16 0 0 0 
17668 2 150.527 2.12387e+18 4335.78 1141.33 610.014 181.519 197.088 2.0484 1.29611e+18 1.22283e+15 0 4.29403e+17 3.36655e+17 0 6.04832e+16 0 0 0 
6404 2 80.35 1.13371e+18 6417.87 1279.69 595.412 347.586 300.391 1.3233 6.80272e+17 8.46577e+14 0 2.31821e+17 1.83472e+17 0 3.72964e+16 0 0 0 
10500 2 118.293 1.66907e+18 4521.42 1174.87 602.281 185.713 265.907 0.528326 1.01232e+18 1.45799e+15 0 3.4023e+17 2.63568e+17 0 5.15001e+16 0 0 0 
14596 2 64.09 9.04285e+17 8122.04 1236.91 601.751 565.833 361.454 -0.728136 5.47359e+17 9.87673e+14 0 1.77358e+17 1.47257e+17 0 3.13233e+16 0 0 0 
18692 2 85.33 1.20397e+18 6315 1283.05 621.881 407.384 345.694 -0.495241 7.34264e+17 1.1758e+15 0 2.44331e+17 1.78016e+17 0 4.61855e+16 0 0 0 
8 3 8.90333 1.57028e+16 7921.61 3343.7 1014.9 4860.61 -211.051 10.5485 9.23004e+15 2.3516e+13 0 3.22757e+15 2.62792e+15 0 5.9378e+14 0 0 0 
7 3 7.81 1.37745e+16 8876.73 3502.93 967.295 4304.71 -296.922 -10.8747 7.91314e+15 1.1758e+13 0 2.98066e+15 2.33984e+15 0 5.29111e+14 0 0 0 
80 3 24.97 8.80793e+16 5074.7 1539.52 461.389 6444.43 21.9087 4.43071 6.54804e+16 3.5274e+13 0 9.92376e+15 9.25356e+15 0 3.38631e+15 0 0 0 
144 3 23.81 8.39875e+16 4816.06 1439.36 430.074 6523.61 13.2958 -10.2978 6.39989e+16 8.23061e+13 0 8.99488e+15 7.87787e+15 0 3.03357e+15 0 0 0 
208 3 28.5267 1.00625e+17 4717.17 1373.65 416.533 6598.21 120.449 5.99843 7.8132e+16 1.1758e+13 0 1.02412e+16 8.41874e+15 0 3.82135e+15 0 0 0 
272 3 27.5 9.70036e+16 4472.94 1293.74 399.815 6647.56 102.159 -1.93557 7.60391e+16 3.5274e+13 0 9.31235e+15 7.80732e+15 0 3.8096e+15 0 0 0 
88 3 27.2667 9.61805e+16 3982.89 1058.7 331.923 6839.64 137.794 -0.132193 8.01309e+16 1.1758e+13 0 6.80789e+15 5.63209e+15 0 3.59795e+15 0 0 0 
152 3 26.46 9.33351e+16 3657.83 939.09 319.492 6888.35 125.117 -0.799488 7.77087e+16 2.3516e+13 0 6.00834e+15 5.63209e+15 0 3.96245e+15 0 0 0 
216 3 25.88 9.12892e+16 3421.77 879.601 278.998 7001.22 131.43 1.68283 7.92255e+16 0 0 4.58562e+15 3.50389e+15 0 3.97421e+15 0 0 0 
280 3 25.7867 9.096e+16 3086.45 777.829 283.742 7037.35 130.924 3.36336 7.93078e+16 3.5274e+13 0 4.38574e+15 3.38631e+15 0 3.84487e+15 0 0 0 
96 3 24.6533 8.69623e+16 2780.13 629.885 246.619 7128.74 117.851 2.02614 7.72854e+16 1.1758e+13 0 3.28049e+15 2.28105e+15 0 4.10355e+15 0 0 0 
160 3 25.2667 8.91257e+16 2679.66 606.445 252.865 7123.05 123.743 -0.0693104 7.96723e+16 1.1758e+13 0 2.83368e+15 2.69258e+15 0 3.91542e+15 0 0 0 
224 3 24.3833 8.60099e+16 2368.95 532.911 210.805 7212.59 112.331 -1.1822 7.87552e+16 1.1758e+13 0 1.97535e+15 1.46975e+15 0 3.79784e+15 0 0 0 
288 3 24.3333 8.58335e+16 2148.75 476.559 206.798 7231.12 105.594 -2.822 7.8473e+16 1.1758e+13 0 1.89304e+15 1.63436e+15 0 3.82135e+15 0 0 0 
79 3 27.91 9.84498e+16 5812.5 1668.65 515.738 6258.13 41.1012 0.69147 7.04893e+16 4.7032e+13 0 1.27104e+16 1.16404e+16 0 3.56268e+15 0 0 0 
143 3 26.9967 9.52281e+16 5414.05 1742.36 471.409 6370.03 31.0877 -7.42314 7.00425e+16 0 0 1.16052e+16 1.01119e+16 0 3.46861e+15 0 0 0 
207 3 29.9733 1.05728e+17 5518.85 1521.38 422.537 6485.83 145.912 -9.39608 8.24589e+16 8.23061e+13 0 9.92376e+15 9.2418e+15 0 4.02124e+15 0 0 0 
271 3 29.2033 1.03012e+17 5030.78 1390.23 447.699 6551.96 124.156 2.61758 8.02132e+16 5.87901e+13 0 1.01236e+16 9.13598e+15 0 3.48037e+15 0 0 0 
87 3 27.9367 9.85439e+16 4876.72 1146.73 343.436 6756.58 175.322 4.95125 8.19651e+16 0 0 6.76086e+15 6.10241e+15 0 3.71553e+15 0 0 0 
151 3 27.5767 9.7274e+16 4285.14 1032.88 328.757 6811.68 152.311 0.324025 8.07775e+16 2.3516e+13 0 6.73734e+15 5.85549e+15 0 3.88014e+15 0 0 0 
215 3 26.2967 9.2759e+16 4243.49 860.065 280.825 6927.11 160.532 5.24329 7.99898e+16 2.3516e+13 0 4.60914e+15 3.92718e+15 0 4.20937e+15 0 0 0 
279 3 25.9667 9.15949e+16 3962.98 880.365 275.124 6942.61 162.072 -0.216827 7.90374e+16 2.3516e+13 0 4.49156e+15 4.16234e+15 0 3.88014e+15 0 0 0 
95 3 25.12 8.86084e+16 3659.56 613.618 221.155 7069.89 145.382 -1.41122 7.9249e+16 2.3516e+13 0 2.81016e+15 2.68083e+15 0 3.84487e+15 0 0 0 
159 3 25.4733 8.98547e+16 3318.22 646.941 249.419 7076.45 133.375 5.12916 7.98251e+16 3.5274e+13 0 3.12763e+15 2.66907e+15 0 4.19761e+15 0 0 0 
223 3 24.4533 8.62568e+16 2930.85 463.215 197.662 7170.74 117.054 4.83839 7.82848e+16 0 0 2.11644e+15 1.79898e+15 0 4.05651e+15 0 0 0 
287 3 24.1967 8.53514e+16 2780.21 511.47 205.346 7175.02 113.89 2.36462 7.78028e+16 2.3516e+13 0 2.05765e+15 1.78722e+15 0 3.68026e+15 0 0 0 
142 3 29.9667 1.05705e+17 6466.92 1872.88 550.048 6120.71 49.391 -2.34735 7.45223e+16 2.3516e+13 0 1.45564e+16 1.2828e+16 0 3.77432e+15 0 0 0 
270 3 31.2467 1.1022e+17 6318.78 1616.79 472.685 6364.17 185.989 8.63027 8.44225e+16 1.1758e+13 0 1.22518e+16 9.17125e+15 0 4.36222e+15 0 0 0 
150 3 28.58 1.00813e+17 6060.06 1152.45 354.04 6614.24 217.374 -5.52721 8.3235e+16 2.3516e+13 0 7.44282e+15 6.19647e+15 0 3.91542e+15 0 0 0 
278 3 27.0933 9.55691e+16 5151.47 861.536 285.647 6849.16 197.756 -0.254412 8.22238e+16 1.1758e+13 0 4.91485e+15 3.99772e+15 0 4.42101e+15 0 0 0 
158 3 25.1767 8.88083e+16 4300.76 666.403 235.889 7010.3 153.337 4.06537 7.84965e+16 1.1758e+13 0 3.4451e+15 3.03357e+15 0 3.82135e+15 0 0 0 
286 3 24.0033 8.46694e+16 3481.51 483.271 197.124 7126.79 122.564 3.26464 7.68739e+16 1.1758e+13 0 2.10468e+15 1.88128e+15 0 3.79784e+15 0 0 0 
5 3 161.67 2.76488e+18 2958.2 1027.68 572.131 110.764 186.812 3.4148 1.78824e+18 2.39428e+15 0 5.25317e+17 3.64672e+17 0 8.42559e+16 0 0 0 
5 3 2.17333 1.54241e+16 9104.6 2679.17 987.082 2585.48 -650.253 -58.6533 8.94216e+15 0 0 3.21729e+15 2.62587e+15 0 6.38726e+14 0 0 0 
149 3 31.9167 1.12583e+17 10402.2 1212.68 359.789 6150.49 293.933 0.0936954 8.93962e+16 2.3516e+13 0 9.6886e+15 8.47753e+15 0 4.99716e+15 0 0 0 
277 3 27.7067 9.77326e+16 8583.18 831.929 304.184 6521.52 233.99 -3.1541 8.21415e+16 3.5274e+13 0 5.9378e+15 5.49099e+15 0 4.12706e+15 0 0 0 
157 3 26.21 9.24532e+16 6237.52 643.592 229.551 6847.43 171.65 4.71533 8.12479e+16 1.1758e+13 0 4.24464e+15 3.36279e+15 0 3.58619e+15 0 0 0 
285 3 24.9867 8.81381e+16 4949.25 402.215 198.37 7016.87 124.607 -3.12074 7.91902e+16 2.3516e+13 0 2.59852e+15 2.3516e+15 0 3.97421e+15 0 0 0 
6 3 6.22333 1.18228e+16 9963.99 3708.9 929.895 3641.8 -550.172 -102.81 6.45918e+15 0 0 2.78631e+15 2.09607e+15 0 4.81272e+14 0 0 0 
78 3 33.09 1.16722e+17 7550.93 2163.68 634.341 5804.85 102.324 1.3162 7.89786e+16 4.7032e+13 0 1.79662e+16 1.58498e+16 0 3.88014e+15 0 0 0 