ITEM: TIMESTEP
17000
ITEM: NUMBER OF CELLS
240
ITEM: BOX BOUNDS oo ao pp
-10 10
0 10
-0.5 0.5
ITEM: CELLS id proc f_avg_n f_avg_nrho f_avg_temp_tra f_avg_temp_rot f_avg_temp_vib f_avg_vel[1] f_avg_vel[2] f_avg_vel[3] f_avg_nrho_CO2 f_avg_nrho_O2 f_avg_nrho_C2 f_avg_nrho_CO f_avg_nrho_O f_avg_nrho_C f_avg_nrho_N2 f_avg_nrho_N f_avg_nrho_NO f_avg_nrho_CN 
65 0 24.705 8.71445e+16 6357.18 184.307 152.962 6995.84 8.61796 0.416704 7.86435e+16 0 0 1.98416e+15 2.48682e+15 0 4.03006e+15 0 0 0 
129 0 26.315 9.28236e+16 9353.1 254.304 185.084 6713.83 25.4148 0.0350434 8.11215e+16 8.81851e+12 0 3.14821e+15 3.80078e+15 0 4.74436e+15 0 0 0 
193 0 24.4425 8.62186e+16 6271.59 191.909 155.337 7003.45 8.46424 -1.32318 7.79027e+16 0 0 1.82543e+15 2.52209e+15 0 3.96833e+15 0 0 0 
257 0 25.8375 9.11393e+16 9624.16 253.61 173.27 6691.82 11.9595 -0.658602 7.96311e+16 1.7637e+13 0 3.43922e+15 3.91542e+15 0 4.13588e+15 0 0 0 
66 0 29.3725 1.03609e+17 13676.4 373.037 210.307 6252.97 31.3114 1.72826 8.6633e+16 2.64555e+13 0 5.62621e+15 6.71089e+15 0 4.61208e+15 0 0 0 
130 0 34.1725 1.2054e+17 18882 553.577 278.583 5497.71 37.0711 -0.496589 9.38642e+16 2.64555e+13 0 1.00443e+16 1.10849e+16 0 5.52039e+15 0 0 0 
194 0 28.4375 1.00311e+17 14335.6 420.47 214.041 6171.34 31.1389 -2.35921 8.38552e+16 1.7637e+13 0 5.47629e+15 6.46397e+15 0 4.49744e+15 0 0 0 
258 0 33.015 1.16457e+17 19042.1 552.048 262.302 5465.16 58.0756 0.985893 9.10687e+16 2.64555e+13 0 9.74445e+15 1.08379e+16 0 4.77963e+15 0 0 0 
579 0 29.375 2.07235e+17 16103.3 519.863 251.317 5886.96 63.5566 -14.7786 1.67657e+17 8.81851e+13 0 1.53618e+16 1.49209e+16 0 9.20652e+15 0 0 0 
1091 0 32.925 2.3228e+17 18470.6 750.045 293.812 5462.89 69.0734 -4.42172 1.78063e+17 3.5274e+13 0 2.17112e+16 2.21697e+16 0 1.03e+16 0 0 0 
1603 0 17.95 1.26634e+17 23923.8 670.266 339.729 3905.89 33.3021 -9.19873 8.66683e+16 3.5274e+13 0 1.59615e+16 1.79545e+16 0 6.01422e+15 0 0 0 
2115 0 21.3 1.50267e+17 23554.8 1025.17 408.921 3351.13 30.601 3.03214 9.9367e+16 3.5274e+13 0 2.22756e+16 2.21874e+16 0 6.40224e+15 0 0 0 
707 0 21.985 1.551e+17 21347 781.079 317.66 4906.65 55.9465 -7.0595 1.14641e+17 7.05481e+13 0 1.63142e+16 1.71432e+16 0 6.93135e+15 0 0 0 
1219 0 24.705 1.74289e+17 23223.4 861.661 348.878 4241.19 84.6148 0.177866 1.23847e+17 5.29111e+13 0 2.1235e+16 2.27165e+16 0 6.43751e+15 0 0 0 
643 0 38.0075 2.68136e+17 21759.2 969.221 336.295 4644.47 52.9553 8.85424 1.94025e+17 7.05481e+13 0 3.25227e+16 3.22934e+16 0 9.22416e+15 0 0 0 
1667 0 27.975 1.97358e+17 21942.1 963.473 439.946 2563.54 80.6871 -10.8839 1.23371e+17 1.05822e+14 0 3.21876e+16 3.41805e+16 0 7.51337e+15 0 0 0 
2179 0 36.765 2.5937e+17 18847.7 1126.47 532.021 1840.74 87.1342 19.0806 1.55717e+17 1.23459e+14 0 4.71437e+16 4.70908e+16 0 9.29471e+15 0 0 0 
771 0 29.5625 2.08558e+17 23360.7 936.015 405.579 3449.61 113.976 -1.24222 1.39138e+17 7.05481e+13 0 2.86954e+16 3.13763e+16 0 9.27707e+15 0 0 0 
1283 0 38.7 2.73021e+17 21639.8 1086.88 481.893 2623.08 138.089 2.82344 1.71767e+17 2.11644e+14 0 4.61914e+16 4.43747e+16 0 1.04764e+16 0 0 0 
5251 0 29.4375 4.15352e+17 18331.3 898.834 344.353 5300.46 86.5881 3.64275 3.07272e+17 1.05822e+14 0 4.01066e+16 5.12884e+16 0 1.65788e+16 0 0 0 
9347 0 31.0425 4.37998e+17 19945.8 1194.33 419.954 4795.06 45.6766 11.3582 3.07978e+17 9.87673e+14 0 6.17296e+16 5.10768e+16 0 1.62261e+16 0 0 0 
13443 0 19.6175 2.76795e+17 22552.2 1111.91 452.415 3368.67 56.2867 -0.548521 1.77675e+17 2.46918e+14 0 4.50097e+16 4.30343e+16 0 1.08291e+16 0 0 0 
17539 0 22.2175 3.1348e+17 21938.7 1353.12 470.382 2990.44 70.3272 -4.00671 1.95736e+17 5.64385e+14 0 5.22761e+16 4.88545e+16 0 1.60497e+16 0 0 0 
4676 0 34.91 4.92567e+17 21461.6 1176.33 452.095 4177.33 66.1426 -11.9778 3.24451e+17 1.41096e+14 0 7.31231e+16 7.27351e+16 0 2.21168e+16 0 0 0 
8772 0 40.7825 5.75425e+17 21623.9 1350.05 489.004 3993.11 66.0494 6.1948 3.74258e+17 2.82192e+14 0 8.56101e+16 9.34409e+16 0 2.18346e+16 0 0 0 
12868 0 27.23 3.84205e+17 20830.8 1274.36 505.68 2581.87 79.8354 11.2762 2.36019e+17 2.46918e+14 0 6.82553e+16 6.4869e+16 0 1.48151e+16 0 0 0 
16964 0 32.03 4.51931e+17 19205.7 1344.3 562.839 2137.14 74.6418 2.47691 2.66954e+17 2.11644e+14 0 8.61039e+16 8.39169e+16 0 1.47445e+16 0 0 0 
5188 0 45.9725 6.48654e+17 21245.2 1476.66 553.403 3133.21 47.1752 -10.2122 4.1253e+17 4.23288e+14 0 1.10196e+17 1.02753e+17 0 2.27518e+16 0 0 0 
9284 0 58.28 8.22308e+17 19127.9 1537.42 616.891 2476.96 49.2343 1.0887 4.87875e+17 6.34933e+14 0 1.57569e+17 1.47304e+17 0 2.89247e+16 0 0 0 
13380 0 39.82 5.61845e+17 16562.8 1365.75 581.87 1607.05 64.8645 6.72022 3.27308e+17 4.93837e+14 0 1.09879e+17 1.00848e+17 0 2.33161e+16 0 0 0 
17476 0 50.8225 7.17086e+17 14214.8 1553.13 636.481 1280.61 67.0587 -2.09071 4.05369e+17 4.23288e+14 0 1.49491e+17 1.36123e+17 0 2.56795e+16 0 0 0 
5700 0 24.61 3.47238e+17 16768.7 1301.71 575.111 1568.31 86.8078 -4.13766 2.01203e+17 2.82192e+14 0 6.94546e+16 6.31405e+16 0 1.31572e+16 0 0 0 
9796 0 30.08 4.24417e+17 14007.8 1262.11 575.515 1074.56 97.1823 -1.34653 2.45437e+17 2.11644e+14 0 8.34584e+16 8.0319e+16 0 1.49915e+16 0 0 0 
13892 0 24.3025 3.42899e+17 16759.4 1178.3 532.888 1505.01 88.1452 10.0973 2.02085e+17 1.41096e+14 0 6.57508e+16 5.98953e+16 0 1.50267e+16 0 0 0 
17988 0 29.035 4.09673e+17 14194.2 1205.05 585.423 1108.23 123.268 -0.498589 2.35489e+17 2.11644e+14 0 8.13772e+16 7.70032e+16 0 1.55911e+16 0 0 0 
6212 0 37.3875 5.27523e+17 11951.2 1256.56 586.704 802.312 100.125 2.13372 3.03039e+17 5.29111e+14 0 1.08961e+17 9.47813e+16 0 2.0212e+16 0 0 0 
10308 0 48.7325 6.87597e+17 9097.82 1275.45 646.416 492.414 116.12 -5.47168 3.88932e+17 8.46577e+14 0 1.49879e+17 1.2614e+17 0 2.17994e+16 0 0 0 
14404 0 36.805 5.19304e+17 12357.9 1183.5 581.908 889.548 138.64 -19.4938 2.97713e+17 2.82192e+14 0 1.04517e+17 9.67214e+16 0 2.00709e+16 0 0 0 
18500 0 47.0575 6.63963e+17 10006.1 1216.53 582.53 600.413 155.422 5.52676 3.81453e+17 4.23288e+14 0 1.3838e+17 1.20743e+17 0 2.29634e+16 0 0 0 
4804 0 24.8075 3.50024e+17 19340.9 1171.47 533.831 2095.53 139.376 -4.88663 2.11644e+17 1.41096e+14 0 6.23645e+16 6.2435e+16 0 1.34394e+16 0 0 0 
8900 0 29.945 4.22512e+17 17677.1 1348.4 566.512 1755.45 164.965 -11.47 2.52844e+17 2.82192e+14 0 8.12361e+16 7.34405e+16 0 1.47093e+16 0 0 0 
12996 0 22.79 3.21558e+17 19311 1303.35 528.353 2079.48 174.6 -3.62847 1.97464e+17 1.7637e+14 0 5.792e+16 5.47453e+16 0 1.12524e+16 0 0 0 
17092 0 26.71 3.76868e+17 17752.8 1244.41 551.391 1770.44 186.617 4.46054 2.25401e+17 1.7637e+14 0 7.16768e+16 6.52922e+16 0 1.43213e+16 0 0 0 
5316 0 34.785 4.90803e+17 14615.4 1296.15 565.8 1202.38 176.335 -6.30242 2.94609e+17 1.7637e+14 0 9.32646e+16 8.53984e+16 0 1.73548e+16 0 0 0 
9412 0 45.71 6.4495e+17 13241.6 1261.95 590.869 1077.16 184.97 1.39353 3.76903e+17 1.7637e+14 0 1.27516e+17 1.16475e+17 0 2.38805e+16 0 0 0 
13508 0 33.05 4.66323e+17 16367.1 1230.86 561.94 1551.25 222.246 -10.6848 2.77854e+17 2.82192e+14 0 8.90669e+16 8.21885e+16 0 1.69315e+16 0 0 0 
17604 0 40.41 5.7017e+17 13156.8 1321.5 602.885 1093.21 240.702 4.31457 3.35209e+17 5.29111e+14 0 1.14464e+17 1.00037e+17 0 1.99298e+16 0 0 0 
4868 0 57.625 8.13067e+17 9849.77 1339.82 601.517 652.792 193.397 -1.61465 4.65723e+17 4.58562e+14 0 1.77323e+17 1.41802e+17 0 2.77607e+16 0 0 0 
8964 0 77.825 1.09808e+18 7521.78 1248.62 610.902 416.864 200.231 3.47124 6.2876e+17 6.34933e+14 0 2.3235e+17 1.94995e+17 3.5274e+13 4.13059e+16 0 0 0 
13060 0 52.3625 7.38815e+17 10102.7 1291.81 610.636 704.33 247.031 -2.95524 4.29144e+17 4.23288e+14 0 1.51008e+17 1.32031e+17 0 2.62086e+16 0 0 0 
17156 0 68.16 9.61711e+17 8429.27 1265.47 627.97 524.298 242.544 -4.81775 5.70064e+17 5.99659e+14 0 1.96371e+17 1.63566e+17 0 3.11117e+16 0 0 0 
4740 0 74.4875 1.05099e+18 16323.6 1662.96 652.337 1836.8 51.638 -6.62732 6.05867e+17 7.40755e+14 0 2.20286e+17 1.96864e+17 0 2.72316e+16 0 0 0 
8836 0 107.317 1.51421e+18 12016.2 1789.93 680.615 1115.26 58.2848 6.2946 8.55536e+17 8.46577e+14 0 3.18454e+17 2.87519e+17 0 5.18528e+16 0 0 0 
12932 0 67.825 9.56985e+17 10968.9 1426.05 623.914 799.992 84.4001 -6.23267 5.45725e+17 1.41096e+15 0 2.00004e+17 1.76617e+17 0 3.32281e+16 0 0 0 
17028 0 99.2775 1.40077e+18 8072.82 1453.4 634.238 486.982 99.0754 -0.26869 7.96241e+17 1.02295e+15 0 3.02298e+17 2.54679e+17 0 4.65265e+16 0 0 0 
5764 0 65.105 9.18606e+17 7759.31 1278.22 645.028 359.743 127.212 -4.50604 5.13519e+17 4.93837e+14 0 1.99863e+17 1.71749e+17 0 3.29812e+16 0 0 0 
9860 0 91.7225 1.29417e+18 5467.75 1254.46 615.704 140.694 137.094 -6.48352 7.47704e+17 9.17125e+14 0 2.75243e+17 2.2586e+17 0 4.44453e+16 0 0 0 
13956 0 61.65 8.69858e+17 7822.06 1266.04 614.845 370.533 150.697 -4.91367 5.01597e+17 8.46577e+14 0 1.81273e+17 1.55664e+17 0 3.04768e+16 0 0 0 
18052 0 84.545 1.1929e+18 5804.59 1196.73 610.414 188.235 164.565 -4.12198 6.99378e+17 8.11303e+14 0 2.48611e+17 2.03637e+17 0 4.04593e+16 0 0 0 
84 1 33.815 1.19279e+17 17548.3 786.533 322.679 5471.44 244.553 -3.00681 9.28324e+16 8.81851e+12 0 1.07762e+16 1.03441e+16 0 5.31756e+15 0 0 0 
212 1 28.395 1.00161e+17 12196.4 604.182 238.227 6288.81 166.804 -0.132521 8.41991e+16 8.81851e+12 0 5.75849e+15 6.09359e+15 0 4.10061e+15 0 0 0 
92 1 26.1875 9.23739e+16 8473.2 479.846 215.445 6713.51 126.88 -1.41198 8.08745e+16 0 0 3.65968e+15 3.6685e+15 0 4.17115e+15 0 0 0 
220 1 24.52 8.64919e+16 5232.57 295.249 175.897 7033.83 81.5879 -0.937718 7.82114e+16 0 0 2.1429e+15 2.32809e+15 0 3.8096e+15 0 0 0 
588 1 37.325 2.63321e+17 21280.9 1079.55 482.802 2713.28 278.78 3.97642 1.68398e+17 1.05822e+14 0 4.31931e+16 4.10237e+16 0 1.05998e+16 0 0 0 
1612 1 28.74 2.02755e+17 22049 1032.55 454.707 3141.15 305.189 6.58481 1.33159e+17 7.05481e+13 0 3.16584e+16 2.95596e+16 0 8.30704e+15 0 0 0 
2124 1 34.02 2.40005e+17 20187.8 1249.59 508.231 2580.39 392.999 0.68274 1.53936e+17 7.05481e+13 0 4.0036e+16 3.67379e+16 0 9.22416e+15 0 0 0 
716 1 24.5175 1.72966e+17 22412.8 939.119 393.82 3961.1 297.172 3.84319 1.21449e+17 1.05822e+14 0 2.33514e+16 2.11997e+16 0 6.8608e+15 0 0 0 
1228 1 27.13 1.91397e+17 21770.3 1103.21 446.987 3684.41 359.26 2.98272 1.30055e+17 2.29281e+14 0 2.8378e+16 2.48858e+16 0 7.84847e+15 0 0 0 
1740 1 19.65 1.38627e+17 21420 977.563 415.411 4552.56 287.553 -10.5856 1.01536e+17 1.7637e+13 0 1.60497e+16 1.48327e+16 0 6.19059e+15 0 0 0 
2252 1 20.99 1.4808e+17 21529.7 992.885 411.605 4260.94 347.459 2.50333 1.0561e+17 8.81851e+13 0 1.84483e+16 1.77428e+16 0 6.19059e+15 0 0 0 
148 1 35.3525 1.24703e+17 17099.5 954.048 347.617 5379.96 307.638 -0.249737 9.59189e+16 3.5274e+13 0 1.22313e+16 1.12171e+16 0 5.29992e+15 0 0 0 
276 1 28.795 1.01572e+17 11990.6 738.746 274.563 6257.16 216.701 1.87557 8.43314e+16 1.7637e+13 0 6.53452e+15 6.13768e+15 0 4.55035e+15 0 0 0 
156 1 25.8 9.1007e+16 7755.68 471.786 214.599 6764.55 142.394 -0.947753 7.95782e+16 8.81851e+12 0 3.73905e+15 3.62441e+15 0 4.05651e+15 0 0 0 
284 1 24.7225 8.72062e+16 5613.68 339.164 185.442 6988.23 108.483 0.374478 7.84759e+16 0 0 2.49564e+15 2.21345e+15 0 4.02124e+15 0 0 0 
780 1 29.5225 2.08276e+17 20790.5 1200.57 490.743 3400.49 426.289 1.38283 1.40655e+17 1.41096e+14 0 3.14292e+16 2.78841e+16 0 8.16594e+15 0 0 0 
1804 1 22.7225 1.60303e+17 20775.7 1096.76 416.174 4241.14 385.107 -1.24523 1.14658e+17 5.29111e+13 0 2.02649e+16 1.85365e+16 0 6.79025e+15 0 0 0 
5196 1 24.6125 3.47273e+17 19382.9 1145.97 511.148 2210.51 289.505 -2.15179 2.17147e+17 3.17466e+14 0 6.12005e+16 5.55213e+16 0 1.30867e+16 0 0 0 
9292 1 28.06 3.95916e+17 17203 1200.64 570.57 1778.03 345.286 -5.73354 2.44061e+17 1.7637e+14 0 7.23118e+16 6.62094e+16 0 1.31572e+16 0 0 0 
13388 1 20.84 2.94044e+17 19620.2 1216.26 590.855 2395.03 340.275 -10.9007 1.8339e+17 1.05822e+14 0 5.36165e+16 4.61737e+16 0 1.07586e+16 0 0 0 
17484 1 23.865 3.36726e+17 18543.3 1315.02 513.857 2097.33 370.628 16.2475 2.09069e+17 4.23288e+14 0 5.90135e+16 5.61563e+16 0 1.20637e+16 0 0 0 
5828 1 20.3875 2.8766e+17 19066 1056.66 472.062 1947.31 222.345 4.6916 1.71467e+17 4.23288e+14 0 5.44631e+16 5.00891e+16 0 1.12171e+16 0 0 0 
9924 1 24.935 3.51823e+17 17337.2 1169.56 547.332 1725.43 225.563 -7.09136 2.10445e+17 3.17466e+14 0 6.66327e+16 6.29642e+16 0 1.14641e+16 0 0 0 
14020 1 19.1425 2.70093e+17 19698.5 1082.91 498.684 2110.9 241.843 4.8397 1.69033e+17 1.41096e+14 0 4.35987e+16 4.43747e+16 0 1.29456e+16 0 0 0 
18116 1 22.1275 3.1221e+17 18175.7 1177.11 559.843 1870.26 259.553 0.412931 1.9055e+17 1.7637e+14 0 5.70381e+16 5.28052e+16 0 1.16404e+16 0 0 0 
6340 1 28.9425 4.08368e+17 14865.4 1300.95 536.275 1289.52 258.618 1.94196 2.41874e+17 3.17466e+14 0 8.00015e+16 7.25234e+16 0 1.36511e+16 0 0 0 
10436 1 35.665 5.03219e+17 13213.5 1278.57 594.232 1074.72 283.879 -1.48548 2.98242e+17 3.17466e+14 0 1.01448e+17 8.56454e+16 0 1.75665e+16 0 0 0 
14532 1 26.385 3.72282e+17 15935.3 1201.2 564.61 1505.18 302.211 -2.72553 2.20322e+17 1.7637e+14 0 7.32994e+16 6.56097e+16 0 1.2875e+16 0 0 0 
18628 1 31.79 4.48545e+17 13914.7 1288.07 561.562 1190.66 316.082 6.69219 2.70234e+17 3.17466e+14 0 8.47635e+16 7.78145e+16 0 1.54148e+16 0 0 0 
5892 1 45.825 6.46573e+17 10548.1 1202.31 599.979 759.212 290.354 -3.80821 3.77891e+17 2.46918e+14 0 1.29562e+17 1.13829e+17 0 2.50446e+16 0 0 0 
9988 1 59.4625 8.38993e+17 8811.78 1333.8 611.885 582.375 289.623 4.9272 4.94613e+17 7.76029e+14 0 1.76688e+17 1.37816e+17 0 2.91011e+16 0 0 0 
14084 1 38.7975 5.47418e+17 12176.8 1282.58 605.472 988.62 329.873 7.5534 3.26355e+17 2.46918e+14 0 1.05787e+17 9.44639e+16 0 2.05648e+16 0 0 0 
18180 1 48.6425 6.86327e+17 9489.58 1228.18 585.815 671.277 358.51 -2.94448 4.10801e+17 5.99659e+14 0 1.38239e+17 1.13723e+17 0 2.29634e+16 0 0 0 
4748 1 32.9025 4.64242e+17 14828 1354.49 613.992 1446.21 379.502 1.19648 2.85014e+17 3.88014e+14 0 8.67741e+16 7.53453e+16 0 1.67199e+16 0 0 0 
8844 1 39.62 5.59023e+17 12782.4 1298.33 576.694 1192.43 396.576 4.77299 3.37361e+17 4.93837e+14 0 1.10126e+17 9.17125e+16 0 1.93302e+16 0 0 0 
12940 1 27.03 3.81383e+17 16775.6 1312.24 562.734 1852.67 396.277 5.27367 2.37571e+17 3.17466e+14 0 6.96309e+16 6.02481e+16 0 1.36158e+16 0 0 0 
17036 1 31.32 4.41913e+17 15024 1367.6 568.198 1598.28 435.697 1.90439 2.70728e+17 2.82192e+14 0 8.55395e+16 6.97368e+16 0 1.56264e+16 0 0 0 
5772 1 21.545 3.03992e+17 17908.8 1391.59 574.709 2179.46 441.735 2.1608 1.86741e+17 1.7637e+14 0 5.42515e+16 5.07593e+16 0 1.20637e+16 0 0 0 
9868 1 24.03 3.39054e+17 16322.5 1331.55 602.946 1953.69 477.658 1.16443 2.10127e+17 3.5274e+14 0 6.54333e+16 5.3158e+16 0 9.98255e+15 0 0 0 
13964 1 17.6375 2.48858e+17 19548 1216.11 505.557 2514.63 450.627 -14.8907 1.60074e+17 1.41096e+14 0 4.22936e+16 3.72847e+16 0 9.06543e+15 0 0 0 
18060 1 19.135 2.69987e+17 18808.1 1419.64 561.488 2520.04 474.329 13.1626 1.7383e+17 6.34933e+14 0 4.53271e+16 3.97186e+16 0 1.04764e+16 0 0 0 
73 1 24.3625 8.59364e+16 6103.63 189.268 155.002 7014.29 11.1693 2.54825 7.81496e+16 0 0 1.74606e+15 2.24872e+15 0 3.79196e+15 0 0 0 
137 1 25.46 8.98077e+16 8884.44 245.903 176.293 6758.92 26.092 0.138512 7.91726e+16 1.7637e+13 0 2.91893e+15 3.69496e+15 0 4.0036e+15 0 0 0 
201 1 23.7375 8.37317e+16 4929.59 177.235 153.924 7111.57 13.3092 0.935937 7.64917e+16 8.81851e+12 0 1.46387e+15 1.9048e+15 0 3.86251e+15 0 0 0 
265 1 25.2225 8.89699e+16 7516.67 237.599 163.229 6884.27 27.5135 -1.94262 7.95253e+16 8.81851e+12 0 2.46918e+15 3.13939e+15 0 3.82723e+15 0 0 0 
81 1 23.5575 8.30968e+16 4315.73 175.903 149.446 7156.41 21.0713 0.0895884 7.64212e+16 1.7637e+13 0 1.26987e+15 1.77252e+15 0 3.61559e+15 0 0 0 
145 1 24.5475 8.65889e+16 6055.36 238.396 158.799 7006.37 29.6537 -0.632625 7.81408e+16 8.81851e+12 0 1.94007e+15 2.53973e+15 0 3.95951e+15 0 0 0 
209 1 23.47 8.27882e+16 3537.91 161.269 146.694 7221.77 14.2202 -1.2594 7.64741e+16 0 0 1.0935e+15 1.34923e+15 0 3.87133e+15 0 0 0 
273 1 23.6175 8.33085e+16 4602.66 201.707 153.68 7128.33 27.1555 -3.82942 7.66152e+16 0 0 1.24341e+15 1.74606e+15 0 3.70377e+15 0 0 0 
89 1 23.1475 8.16506e+16 2880.43 184.949 143.726 7270.15 15.5638 -2.76075 7.60949e+16 0 0 8.20121e+14 1.17286e+15 0 3.56268e+15 0 0 0 
153 1 23.3925 8.25148e+16 3595.15 185.778 149.999 7212.82 26.2095 0.705146 7.61743e+16 0 0 1.00531e+15 1.49033e+15 0 3.84487e+15 0 0 0 
217 1 23.0425 8.12802e+16 2165.58 166.562 150.405 7319.93 14.4981 0.690851 7.59274e+16 0 0 5.46748e+14 1.00531e+15 0 3.80078e+15 0 0 0 
281 1 23.315 8.22414e+16 2768.26 180.289 150.991 7275.79 23.3734 0.955755 7.64036e+16 0 0 9.08306e+14 1.19932e+15 0 3.73023e+15 0 0 0 
74 1 27.3975 9.6642e+16 12620 340.726 201.253 6360.73 42.5282 -0.428475 8.17211e+16 2.64555e+13 0 5.01773e+15 5.67912e+15 0 4.19761e+15 0 0 0 
138 1 31.22 1.10126e+17 17618.8 525.408 239.734 5697.46 79.4062 0.143347 8.79029e+16 7.05481e+13 0 8.35113e+15 9.04779e+15 0 4.75318e+15 0 0 0 
202 1 26.2275 9.2515e+16 10661.2 332.333 187.346 6573.82 45.1254 -3.46874 8.02573e+16 1.7637e+13 0 3.73905e+15 4.55035e+15 0 3.95069e+15 0 0 0 
266 1 28.705 1.01254e+17 14206.4 472.161 228.813 6154.05 80.1214 -2.39706 8.42344e+16 2.64555e+13 0 6.12886e+15 6.51688e+15 0 4.34753e+15 0 0 0 
82 1 25.4975 8.994e+16 8510.08 300.976 182.383 6782.3 46.1849 -2.32801 7.9684e+16 8.81851e+12 0 2.88365e+15 3.32458e+15 0 4.03888e+15 0 0 0 
146 1 27.055 9.54339e+16 11490.6 380.485 198.74 6468.7 76.8251 -0.0795352 8.14478e+16 0 0 4.36516e+15 5.22056e+15 0 4.40044e+15 0 0 0 
210 1 24.9375 8.79646e+16 6353.47 253.29 169.749 6974.71 41.8011 -0.977799 7.92343e+16 2.64555e+13 0 2.03708e+15 2.64555e+15 0 4.02124e+15 0 0 0 
274 1 25.2775 8.91639e+16 8108.27 310.102 186.96 6809.89 59.3688 1.28124 7.90844e+16 0 0 3.0512e+15 3.14821e+15 0 3.88014e+15 0 0 0 
90 1 24.0575 8.48605e+16 4405.06 213.221 154.693 7139.7 31.3693 0.2322 7.755e+16 8.81851e+12 0 1.38451e+15 1.99298e+15 0 3.92424e+15 0 0 0 
154 1 24.2675 8.56013e+16 5418.67 244.33 166.202 7042.42 50.3608 -2.15905 7.76205e+16 0 0 1.84307e+15 2.32809e+15 0 3.8096e+15 0 0 0 
218 1 23.2675 8.20739e+16 3290.36 187.623 153.024 7231.46 31.6794 -1.73889 7.63859e+16 0 0 9.25943e+14 1.30514e+15 0 3.45686e+15 0 0 0 
282 1 23.77 8.38464e+16 3951.55 243.497 154.698 7165.52 40.6013 -0.487774 7.70826e+16 8.81851e+12 0 1.2875e+15 1.65788e+15 0 3.8096e+15 0 0 0 
91 1 25.0125 8.82292e+16 6675.41 345.865 173.557 6926.75 69.5009 -0.67142 7.9102e+16 3.5274e+13 0 2.26636e+15 2.64555e+15 0 4.17997e+15 0 0 0 
219 1 24.1675 8.52485e+16 4323.7 249.754 162.364 7129.22 51.7926 -0.958045 7.80879e+16 0 0 1.57851e+15 1.64906e+15 0 3.93306e+15 0 0 0 
75 1 37.275 1.31484e+17 21550.9 711.996 314.646 4861.86 130.493 0.951994 9.81059e+16 1.05822e+14 0 1.35011e+16 1.43742e+16 0 5.39693e+15 0 0 0 
203 1 32.765 1.15575e+17 18153 585.59 280.206 5545.16 133.443 -1.09725 9.03368e+16 3.5274e+13 0 9.48872e+15 1.02559e+16 0 5.45866e+15 0 0 0 
83 1 28.69 1.01201e+17 14392.2 448.589 224.827 6109 119.627 0.326351 8.36347e+16 2.64555e+13 0 6.25232e+15 6.63152e+15 0 4.65617e+15 0 0 0 
211 1 26.3625 9.29912e+16 9737.68 388.679 196.762 6623.65 89.2706 -2.98588 8.05394e+16 0 0 3.9066e+15 4.47098e+15 0 4.07415e+15 0 0 0 
1731 1 17.9375 1.26546e+17 22409.2 705.726 312.258 4637.95 93.1697 -15.3852 9.17125e+16 7.05481e+13 0 1.4674e+16 1.4092e+16 0 5.99659e+15 0 0 0 
2243 1 21.155 1.49244e+17 23267.6 890.082 360.111 3956.81 120.18 9.34064 1.02224e+17 7.05481e+13 0 2.16406e+16 1.95771e+16 0 5.73203e+15 0 0 0 
155 1 25.365 8.94726e+16 7905.52 389.489 191.317 6805.64 96.9734 2.15057 7.90315e+16 0 0 3.06002e+15 3.14821e+15 0 4.23288e+15 0 0 0 
283 1 24.015 8.47106e+16 4754.54 261.335 174.699 7087.41 63.8053 -3.98709 7.67122e+16 0 0 1.73725e+15 2.06353e+15 0 4.19761e+15 0 0 0 
267 1 38.315 1.35152e+17 20977.9 778.387 332.403 4813.41 213.192 1.98929 9.95962e+16 2.64555e+13 0 1.50973e+16 1.46299e+16 0 5.80258e+15 0 0 0 
147 1 31.685 1.11766e+17 16507.9 597.768 269.512 5762.22 172.865 -4.3392 8.94814e+16 1.7637e+13 0 8.72151e+15 8.48341e+15 0 5.06182e+15 0 0 0 
275 1 27.2875 9.6254e+16 11267.7 495.451 221.884 6443.57 129.456 -0.973687 8.18887e+16 2.64555e+13 0 5.01773e+15 4.7179e+15 0 4.60326e+15 0 0 0 
651 1 24.8825 1.75541e+17 23244.3 956.151 380.344 3932.42 176.243 6.65828 1.22101e+17 5.29111e+13 0 2.29281e+16 2.38805e+16 0 6.57861e+15 0 0 0 
1163 1 29.5175 2.0824e+17 22643.9 1062 438.7 3228.96 232.073 7.15104 1.36687e+17 1.41096e+14 0 3.19406e+16 3.16232e+16 0 7.84847e+15 0 0 0 
1675 1 20.7075 1.46087e+17 22655 852.596 367.226 4223.78 204.094 0.842232 1.03529e+17 3.5274e+13 0 1.87658e+16 1.78663e+16 0 5.89076e+15 0 0 0 
2187 1 24.29 1.71361e+17 22795.9 960.889 434.247 3637.11 254.509 0.940162 1.1524e+17 1.23459e+14 0 2.54149e+16 2.33514e+16 0 7.23118e+15 0 0 0 
1795 1 25.3075 1.7854e+17 23217.1 967.837 405.249 3349.67 152.817 0.902506 1.16951e+17 1.41096e+14 0 2.74079e+16 2.60146e+16 0 8.02484e+15 0 0 0 
2307 1 32.255 2.27553e+17 21637.1 977.693 479.735 2613.09 199.756 3.13445 1.44077e+17 8.81851e+13 0 3.79901e+16 3.65263e+16 0 8.87142e+15 0 0 0 
1292 2 30.9675 2.1847e+17 19696.9 1378.42 514.462 3419.79 481.294 -0.917159 1.46035e+17 5.29111e+13 0 3.43922e+16 2.94185e+16 0 8.57159e+15 0 0 0 
2316 2 22.235 1.56864e+17 19584.4 1316.82 480.919 4321.7 434.019 0.475424 1.10866e+17 8.81851e+13 0 2.10586e+16 1.88187e+16 0 6.03186e+15 0 0 0 
5252 2 184.007 2.59627e+18 7736.06 1617.17 699.633 562.08 63.6975 13.5863 1.52123e+18 1.55206e+15 0 5.38e+17 4.55846e+17 0 7.96488e+16 0 0 0 
13444 2 163.29 2.30396e+18 5077.03 1323.25 646.932 192.589 114.692 -3.26883 1.36147e+18 1.34041e+15 0 4.83184e+17 3.88014e+17 0 6.99484e+16 0 0 0 
17540 2 343.78 4.8506e+18 2528.01 1115.18 591.82 18.3635 109.477 1.86592 3.04489e+18 3.95069e+15 0 9.60618e+17 6.9377e+17 0 1.47375e+17 0 0 0 
6276 2 139.933 1.97439e+18 4095.32 1228.07 622.112 72.5258 149.439 2.87054 1.16824e+18 1.02295e+15 0 4.14752e+17 3.2505e+17 0 6.53275e+16 0 0 0 
10372 2 242.945 3.42786e+18 2500.88 1058.66 582.981 1.48037 126.601 0.908402 2.13478e+18 1.97535e+15 0 6.90383e+17 4.88933e+17 0 1.11783e+17 0 0 0 
14468 2 123.433 1.74159e+18 4280.12 1193.37 609.037 89.8505 164.716 3.08048 1.02679e+18 2.36336e+15 0 3.70483e+17 2.83533e+17 0 5.84138e+16 0 0 0 
18564 2 198.787 2.80482e+18 2779 1065 579.501 21.9465 122.952 -4.114 1.71661e+18 1.19932e+15 0 5.87595e+17 4.09567e+17 0 8.9843e+16 0 0 0 
5260 2 47.5325 6.70665e+17 11179.9 1390.77 617.908 1012.31 435.022 5.08895 4.08438e+17 3.5274e+14 0 1.29632e+17 1.09702e+17 0 2.25401e+16 0 0 0 
9356 2 55.5925 7.84389e+17 9622.07 1365.02 620.298 884.989 453.494 4.58675 4.85018e+17 8.81851e+14 0 1.53125e+17 1.18344e+17 0 2.70199e+16 0 0 0 
13452 2 34.8825 4.92179e+17 13756.9 1420.72 605.644 1506.08 473.927 -0.793687 3.01064e+17 3.17466e+14 0 9.36173e+16 7.88375e+16 0 1.83425e+16 0 0 0 
17548 2 38.3125 5.40575e+17 12324.8 1436.59 614.468 1378.56 523.099 -7.1183 3.30236e+17 3.17466e+14 0 1.06563e+17 8.22943e+16 0 2.11644e+16 0 0 0 
6284 2 26.1975 3.69637e+17 16198.4 1418.08 560.1 1964.22 502.945 -13.1267 2.30445e+17 3.5274e+14 0 6.85022e+16 5.54155e+16 0 1.49209e+16 0 0 0 
10380 2 27.43 3.87027e+17 14848.5 1494.45 610.874 1865.75 553.377 -3.4585 2.41698e+17 3.88014e+14 0 7.25587e+16 5.85902e+16 0 1.37921e+16 0 0 0 
14476 2 20.455 2.88612e+17 17581.9 1618.34 574.542 2418.96 510.596 1.38657 1.85506e+17 1.41096e+14 0 5.16412e+16 4.23288e+16 0 8.99488e+15 0 0 0 
18572 2 20.7925 2.93374e+17 17227.2 1445.13 577.439 2464.18 554.093 -4.37868 1.89386e+17 2.82192e+14 0 4.9172e+16 4.31401e+16 0 1.13935e+16 0 0 0 
5380 2 112.683 1.58991e+18 5818.83 1276.93 619.21 280.114 182.925 2.69162 9.39877e+17 1.16404e+15 0 3.30624e+17 2.6586e+17 0 5.23819e+16 0 0 0 
9476 2 177.075 2.49846e+18 3789.93 1169.25 595.739 138.614 145.933 -1.38835 1.54546e+18 2.39863e+15 0 4.96588e+17 3.75986e+17 0 7.80262e+16 0 0 0 
13572 2 98.7125 1.3928e+18 6206.79 1281.07 611.153 319.902 228.3 -1.97911 8.24037e+17 8.11303e+14 0 2.87624e+17 2.31186e+17 0 4.91367e+16 0 0 0 
17668 2 152.287 2.14872e+18 4278.17 1136.45 606.662 169.098 196.869 3.95871 1.31181e+18 1.30514e+15 0 4.34153e+17 3.38807e+17 0 6.26467e+16 0 0 0 
6404 2 80.4975 1.13579e+18 6601.09 1260.53 603.172 363.117 295.648 0.665526 6.83752e+17 8.11303e+14 0 2.33232e+17 1.81838e+17 0 3.61559e+16 0 0 0 
10500 2 119.032 1.6795e+18 4567.09 1181.47 601.604 191.145 266.874 -1.90443 1.0184e+18 1.58733e+15 0 3.40465e+17 2.67906e+17 0 5.11474e+16 0 0 0 
14596 2 63.91 9.01745e+17 8270.77 1209.1 602.079 587.579 362.166 0.122467 5.46748e+17 8.46577e+14 0 1.75524e+17 1.47375e+17 0 3.12528e+16 0 0 0 
18692 2 84.86 1.19734e+18 6178.21 1252.85 616.516 388.964 344.624 -0.72303 7.29361e+17 1.23459e+15 0 2.41521e+17 1.81238e+17 0 4.39867e+16 0 0 0 
8 3 8.895 1.56881e+16 7995.4 3451.14 997.589 4865.47 -196.555 -17.0873 9.40494e+15 1.7637e+13 0 3.17907e+15 2.5265e+15 0 5.59975e+14 0 0 0 
7 3 7.8075 1.37701e+16 8912.97 3592.3 997.826 4352.66 -299.942 -1.81779 7.8617e+15 8.81851e+12 0 3.04679e+15 2.35013e+15 0 5.02655e+14 0 0 0 
80 3 25.0225 8.82645e+16 5038.7 1493.17 454.293 6458.53 19.6583 3.64772 6.60595e+16 3.5274e+13 0 9.74445e+15 9.09188e+15 0 3.3334e+15 0 0 0 
144 3 24.0225 8.47371e+16 4801.88 1409.11 416.865 6533.84 8.89774 -6.31817 6.47896e+16 7.05481e+13 0 8.90669e+15 7.9543e+15 0 3.01593e+15 0 0 0 
208 3 28.3775 1.00099e+17 4688.76 1358.71 405.155 6604.06 117.889 -1.07012 7.79644e+16 2.64555e+13 0 1.00002e+16 8.28058e+15 0 3.82723e+15 0 0 0 
272 3 27.8175 9.81236e+16 4353.75 1245.77 407.86 6666.16 102.224 1.86328 7.69415e+16 3.5274e+13 0 9.2418e+15 8.06894e+15 0 3.83605e+15 0 0 0 
88 3 27.32 9.63687e+16 3982.28 1065.03 329.203 6839.44 139.537 -0.185951 8.02043e+16 3.5274e+13 0 6.66679e+15 5.6703e+15 0 3.79196e+15 0 0 0 
152 3 26.415 9.31764e+16 3725.04 951.006 328.266 6875.79 129.13 -1.53265 7.80085e+16 2.64555e+13 0 5.9084e+15 5.49393e+15 0 3.73905e+15 0 0 0 
216 3 25.7675 9.08924e+16 3347.39 856.107 281.136 7006.53 131.987 1.58425 7.8811e+16 0 0 4.57681e+15 3.54504e+15 0 3.95951e+15 0 0 0 
280 3 25.74 9.07954e+16 3096.18 797.63 287.514 7029.91 130.175 -0.357261 7.90491e+16 2.64555e+13 0 4.33871e+15 3.50977e+15 0 3.87133e+15 0 0 0 
96 3 24.8025 8.74884e+16 2828.53 626.838 245.974 7121.48 118.726 1.15741 7.7744e+16 1.7637e+13 0 3.25403e+15 2.381e+15 0 4.09179e+15 0 0 0 
160 3 25.2 8.88906e+16 2698.72 616.182 242.603 7125.37 120.963 2.83963 7.95165e+16 8.81851e+12 0 2.8131e+15 2.59264e+15 0 3.95951e+15 0 0 0 
224 3 24.1675 8.52485e+16 2385.32 540.133 210.227 7208.74 113.309 -1.87989 7.78851e+16 8.81851e+12 0 2.05471e+15 1.54324e+15 0 3.75668e+15 0 0 0 
288 3 24.2775 8.56365e+16 2116.45 484.524 202.632 7232.76 103.851 -1.6905 7.82731e+16 8.81851e+12 0 1.91362e+15 1.64906e+15 0 3.79196e+15 0 0 0 
79 3 27.845 9.82206e+16 5767.7 1636.79 504.24 6272.54 42.114 3.73443 7.05393e+16 3.5274e+13 0 1.24341e+16 1.15346e+16 0 3.67732e+15 0 0 0 
143 3 26.7775 9.44551e+16 5408.46 1701.41 482.759 6371.78 29.8584 -7.11028 6.93488e+16 0 0 1.14376e+16 1.01413e+16 0 3.5274e+15 0 0 0 
207 3 30.145 1.06334e+17 5484.91 1477.33 432.31 6492.51 149.596 -7.15561 8.28587e+16 6.17296e+13 0 1.01501e+16 9.40053e+15 0 3.86251e+15 0 0 0 
271 3 29.0875 1.02603e+17 4972.35 1381.47 439.462 6560.48 123.644 -1.70197 8.00192e+16 5.29111e+13 0 1.00002e+16 9.0037e+15 0 3.5274e+15 0 0 0 
87 3 27.9475 9.85821e+16 4859.78 1162.23 346.615 6756.3 178.651 3.40444 8.1774e+16 0 0 6.83434e+15 6.19941e+15 0 3.77432e+15 0 0 0 
151 3 27.495 9.6986e+16 4293.36 1059.77 332.481 6812.5 152.7 0.700652 8.09098e+16 2.64555e+13 0 6.49924e+15 5.77612e+15 0 3.77432e+15 0 0 0 
215 3 26.2525 9.26032e+16 4192.82 826.237 276.718 6930.56 156.74 3.95366 7.97899e+16 1.7637e+13 0 4.59444e+15 3.97715e+15 0 4.22407e+15 0 0 0 
279 3 26.2525 9.26032e+16 3856.48 867.787 272.183 6959.32 157.946 0.735779 8.03631e+16 2.64555e+13 0 4.47098e+15 3.92424e+15 0 3.81841e+15 0 0 0 
95 3 25.09 8.85026e+16 3617.37 611.911 220.505 7069.84 146.56 -3.30212 7.90844e+16 1.7637e+13 0 2.83074e+15 2.74256e+15 0 3.82723e+15 0 0 0 
159 3 25.305 8.92609e+16 3221.51 634.866 248.656 7087.78 131.985 6.14657 7.94989e+16 3.5274e+13 0 2.9542e+15 2.68083e+15 0 4.09179e+15 0 0 0 
223 3 24.3975 8.60598e+16 2928.52 473.214 195.12 7172.41 116.623 5.65183 7.82731e+16 0 0 2.08117e+15 1.71079e+15 0 3.99478e+15 0 0 0 
287 3 24.2 8.53632e+16 2763.24 529.196 206.138 7173.44 115.488 2.50209 7.76734e+16 1.7637e+13 0 2.17817e+15 1.80779e+15 0 3.68614e+15 0 0 0 
142 3 29.9425 1.05619e+17 6406.01 1857.4 547.741 6117.61 52.5639 -3.04446 7.44811e+16 2.64555e+13 0 1.44359e+16 1.30778e+16 0 3.59795e+15 0 0 0 
270 3 31.43 1.10866e+17 6293.52 1611.34 462.5 6365.7 186.053 10.6567 8.47547e+16 3.5274e+13 0 1.21255e+16 9.55926e+15 0 4.39162e+15 0 0 0 
150 3 28.565 1.0076e+17 6087.65 1196.47 355.164 6612.14 218.937 -4.42042 8.3088e+16 4.40925e+13 0 7.59274e+15 6.0495e+15 0 3.98597e+15 0 0 0 
278 3 27.09 9.55574e+16 5146.57 862.039 285.953 6846.41 198.959 -2.59147 8.20827e+16 8.81851e+12 0 4.97364e+15 4.15352e+15 0 4.33871e+15 0 0 0 
158 3 25.3075 8.92698e+16 4391.93 636.53 234.954 6996.33 155.32 2.26477 7.86699e+16 8.81851e+12 0 3.50095e+15 3.18348e+15 0 3.9066e+15 0 0 0 
286 3 23.9675 8.4543e+16 3450.67 469.703 203.618 7130.09 122.225 2.73425 7.68798e+16 1.7637e+13 0 2.11644e+15 1.84307e+15 0 3.68614e+15 0 0 0 
5 3 161.857 2.76809e+18 2972.54 1023.96 573.912 111.299 186.623 1.65573 1.79079e+18 2.35153e+15 0 5.23621e+17 3.64743e+17 0 8.65789e+16 0 0 0 
5 3 2.1625 1.53472e+16 8880.53 2787.08 991.996 2580.37 -685.972 -28.8339 8.72926e+15 0 0 3.35331e+15 2.57265e+15 0 6.91953e+14 0 0 0 
149 3 31.8625 1.12392e+17 10389.7 1218.69 367.61 6158.63 297.712 2.74388 8.95872e+16 1.7637e+13 0 9.5769e+15 8.30704e+15 0 4.90309e+15 0 0 0 
277 3 27.54 9.71447e+16 8584.97 843.759 300.897 6523.78 235.007 -4.53227 8.17476e+16 2.64555e+13 0 5.93486e+15 5.3352e+15 0 4.10061e+15 0 0 0 
157 3 26.115 9.21181e+16 6251.78 641.122 233.16 6847.54 172.546 5.13758 8.10597e+16 1.7637e+13 0 4.19761e+15 3.26285e+15 0 3.58031e+15 0 0 0 
285 3 24.8025 8.74884e+16 4848.4 405.238 198.196 7025.51 125.82 -2.65269 7.84495e+16 1.7637e+13 0 2.56619e+15 2.32809e+15 0 4.12706e+15 0 0 0 
6 3 6.24 1.18545e+16 9981.44 3673.86 915.43 3691.71 -567.798 -66.5588 6.54467e+15 0 0 2.7404e+15 2.07549e+15 0 4.93938e+14 0 0 0 