ITEM: TIMESTEP
22000
ITEM: NUMBER OF CELLS
240
ITEM: BOX BOUNDS oo ao pp
-10 10
0 10
-0.5 0.5
ITEM: CELLS id proc f_avg_n f_avg_nrho f_avg_temp_tra f_avg_temp_rot f_avg_temp_vib f_avg_vel[1] f_avg_vel[2] f_avg_vel[3] f_avg_nrho_CO2 f_avg_nrho_O2 f_avg_nrho_C2 f_avg_nrho_CO f_avg_nrho_O f_avg_nrho_C f_avg_nrho_N2 f_avg_nrho_N f_avg_nrho_NO f_avg_nrho_CN 
65 0 24.6978 8.7119e+16 6377.41 185.003 157.094 6994.07 10.9859 -1.29453 7.86964e+16 0 0 1.9048e+15 2.61812e+15 0 3.89974e+15 0 0 0 
129 0 26.4011 9.31274e+16 9556.17 263.828 182.892 6696.54 24.8931 -0.408301 8.12283e+16 7.83867e+12 0 3.11979e+15 4.19761e+15 0 4.57387e+15 0 0 0 
193 0 24.5722 8.66761e+16 6412.79 198.573 155.364 6990.79 8.42258 -1.34557 7.82652e+16 0 0 1.90088e+15 2.64555e+15 0 3.86447e+15 0 0 0 
257 0 25.59 9.02663e+16 9683.45 253.036 176.759 6687.22 14.9923 1.57739 7.88806e+16 1.1758e+13 0 3.31968e+15 3.96245e+15 0 4.09179e+15 0 0 0 
66 0 29.4856 1.04007e+17 13728.8 403.78 206.785 6243.76 29.5044 0.87591 8.68956e+16 1.56773e+13 0 5.60857e+15 7.01561e+15 0 4.47196e+15 0 0 0 
130 0 34.3422 1.21139e+17 18936.3 551.067 272.924 5490.52 36.8563 -0.144118 9.46716e+16 2.3516e+13 0 1.001e+16 1.0982e+16 0 5.4518e+15 0 0 0 
194 0 28.5078 1.00558e+17 14272.8 405.425 214.585 6185.39 32.1283 1.91795 8.43089e+16 7.83867e+12 0 5.6948e+15 6.2631e+15 0 4.28384e+15 0 0 0 
258 0 32.9267 1.16146e+17 19258.9 540.192 263.484 5438.49 55.336 1.24688 9.08189e+16 2.3516e+13 0 9.78267e+15 1.06841e+16 0 4.83646e+15 0 0 0 
579 0 29.7022 2.09543e+17 16017.9 605.392 253.387 5882.12 62.1901 -1.73927 1.685e+17 3.91934e+13 0 1.58968e+16 1.60301e+16 0 9.07719e+15 0 0 0 
1091 0 33.03 2.3302e+17 18934.9 754.875 317.987 5362.49 65.9163 -2.10017 1.78032e+17 4.7032e+13 0 2.09998e+16 2.37669e+16 0 1.01746e+16 0 0 0 
1603 0 17.9633 1.26728e+17 23938.4 707.302 364.102 3923.56 31.5225 1.52727 8.67193e+16 3.91934e+13 0 1.64063e+16 1.79349e+16 0 5.62817e+15 0 0 0 
2115 0 21.5022 1.51694e+17 23487.7 951.828 416.919 3310.59 44.2239 3.5527 9.93866e+16 3.13547e+13 0 2.28654e+16 2.3516e+16 0 5.89468e+15 0 0 0 
707 0 21.7167 1.53207e+17 21600.6 708.548 323.194 4875.72 63.0282 1.43666 1.13849e+17 4.7032e+13 0 1.58498e+16 1.66964e+16 0 6.76478e+15 0 0 0 
1219 0 24.9133 1.75759e+17 23217.9 821.224 364.387 4232.81 75.0325 2.16116 1.24651e+17 9.40641e+13 0 2.22932e+16 2.22148e+16 0 6.5061e+15 0 0 0 
643 0 38.0433 2.68388e+17 21622.6 884.768 343.557 4644.7 61.4345 0.108737 1.92118e+17 8.62254e+13 0 3.32438e+16 3.2993e+16 0 9.94728e+15 0 0 0 
1667 0 27.79 1.96053e+17 21917.2 1022.66 453.434 2558.5 78.0426 2.82234 1.22769e+17 1.01903e+14 0 3.24678e+16 3.34868e+16 0 7.22726e+15 0 0 0 
2179 0 37.2711 2.62941e+17 19033 1143.55 522.329 1887.09 90.7192 -1.42814 1.57832e+17 1.1758e+14 0 4.86076e+16 4.68753e+16 0 9.50831e+15 0 0 0 
771 0 30.0933 2.12303e+17 23318.6 972.933 417.698 3449.57 113.692 -3.15158 1.41276e+17 1.09741e+14 0 3.01867e+16 3.17074e+16 0 9.02231e+15 0 0 0 
1283 0 38.2744 2.70019e+17 21725.9 1085.49 477.894 2657.47 136.574 5.16121 1.69817e+17 2.27322e+14 0 4.59973e+16 4.3779e+16 0 1.01981e+16 0 0 0 
5251 0 29.48 4.15951e+17 18230.5 874.292 338.088 5382.59 62.5234 1.62103 3.15303e+17 6.27094e+13 0 4.02281e+16 4.39279e+16 0 1.64299e+16 0 0 0 
9347 0 31.3656 4.42556e+17 20098.7 1265.25 392.605 4800.15 52.4609 11.2478 3.15021e+17 4.7032e+14 0 5.89155e+16 5.20488e+16 0 1.61006e+16 0 0 0 
13443 0 19.5111 2.75294e+17 22605.3 1161.33 451.398 3417.26 62.7956 -4.90176 1.77577e+17 1.56773e+14 0 4.40847e+16 4.19996e+16 0 1.14758e+16 0 0 0 
17539 0 22.4778 3.17153e+17 22064.3 1211.15 461.028 3000.5 55.9197 3.09477 1.97676e+17 4.38966e+14 0 5.34284e+16 5.16882e+16 0 1.39215e+16 0 0 0 
4676 0 35.3022 4.98101e+17 21301.6 1196.8 453.611 4206.79 51.3113 -0.154617 3.33504e+17 1.25419e+14 0 7.12379e+16 7.54081e+16 0 1.78251e+16 0 0 0 
8772 0 41.0244 5.78839e+17 21485 1395.85 491.758 3877.25 53.7813 2.95389 3.75959e+17 1.72451e+14 0 9.18536e+16 9.07248e+16 0 2.01297e+16 0 0 0 
12868 0 26.79 3.77997e+17 20690.3 1262.58 512.522 2528.31 69.789 3.89073 2.31115e+17 1.09741e+14 0 6.68796e+16 6.52805e+16 0 1.46113e+16 0 0 0 
16964 0 31.9133 4.50285e+17 19080.2 1377.08 560.29 2103.62 73.6164 6.09036 2.65057e+17 2.66515e+14 0 8.61e+16 8.18358e+16 0 1.70256e+16 0 0 0 
5188 0 47.0056 6.6323e+17 21221.7 1445.98 530.163 3220.83 48.5976 -11.2935 4.16234e+17 5.01675e+14 0 1.15244e+17 1.06245e+17 0 2.50054e+16 0 0 0 
9284 0 57.3689 8.09453e+17 19195.3 1528.43 626.757 2503 55.5224 4.31013 4.82016e+17 4.54643e+14 0 1.51914e+17 1.45298e+17 0 2.97713e+16 0 0 0 
13380 0 39.7322 5.60606e+17 16653.3 1396.85 576.225 1639.88 62.6076 -1.73045 3.26591e+17 3.44902e+14 0 1.10557e+17 1.02734e+17 0 2.03806e+16 0 0 0 
17476 0 50.6378 7.1448e+17 14180.2 1517.49 637.778 1273.31 63.9048 -3.27715 4.04193e+17 4.54643e+14 0 1.51177e+17 1.33696e+17 0 2.49583e+16 0 0 0 
5700 0 24.6989 3.48492e+17 16262.9 1269.51 598.578 1459.17 92.3936 -4.65093 2.02504e+17 1.88128e+14 0 6.7538e+16 6.48729e+16 0 1.33885e+16 0 0 0 
9796 0 30.2844 4.27302e+17 14223.2 1248.89 569.17 1099.43 97.847 5.59431 2.46809e+17 2.66515e+14 0 8.65233e+16 7.82143e+16 0 1.54892e+16 0 0 0 
13892 0 24.1156 3.40261e+17 16521.6 1150.02 531.22 1456.77 96.3774 9.65219 1.99714e+17 1.56773e+14 0 6.46847e+16 6.19569e+16 0 1.3749e+16 0 0 0 
17988 0 28.8311 4.06796e+17 14195.4 1184.35 571.455 1106.6 123.412 -3.68773 2.34643e+17 2.03806e+14 0 8.05345e+16 7.66152e+16 0 1.47994e+16 0 0 0 
6212 0 37.5522 5.29847e+17 12183.3 1251.38 582.154 841.048 101.903 0.11237 3.03278e+17 3.91934e+14 0 1.09553e+17 9.74818e+16 0 1.9142e+16 0 0 0 
10308 0 48.5033 6.84363e+17 9599.66 1285.04 619.761 552.305 110.153 -1.31176 3.90538e+17 7.99545e+14 0 1.44733e+17 1.25889e+17 0 2.24029e+16 0 0 0 
14404 0 36.5222 5.15314e+17 12022.4 1181.51 583.099 838.636 141.156 -3.14027 2.95581e+17 2.50838e+14 0 1.04976e+17 9.56789e+16 0 1.88285e+16 0 0 0 
18500 0 46.9144 6.61945e+17 9766.67 1242.84 594.506 570.874 149.666 2.61995 3.79799e+17 6.11417e+14 0 1.3771e+17 1.20559e+17 0 2.32652e+16 0 0 0 
4804 0 24.6178 3.47347e+17 19154.1 1177.63 537.159 2040.82 147.729 -3.37476 2.10939e+17 1.41096e+14 0 6.20353e+16 6.12201e+16 0 1.30122e+16 0 0 0 
8900 0 29.3367 4.13929e+17 17276.7 1264.44 569.614 1669.63 161.602 -3.64614 2.47718e+17 2.82192e+14 0 7.96253e+16 7.13633e+16 0 1.49405e+16 0 0 0 
12996 0 22.9556 3.23894e+17 19403.2 1255.69 517.586 2100.93 179.626 -10.2157 1.97942e+17 1.09741e+14 0 5.77397e+16 5.60308e+16 0 1.20716e+16 0 0 0 
17092 0 27.1567 3.8317e+17 17808.6 1238.22 547.256 1801.67 195.641 -4.39557 2.28576e+17 1.72451e+14 0 7.25861e+16 6.77889e+16 0 1.40469e+16 0 0 0 
5316 0 35.2911 4.97944e+17 14415.2 1298.63 570.133 1193.44 170.452 -0.274024 2.94734e+17 4.07611e+14 0 9.63373e+16 8.8969e+16 0 1.74959e+16 0 0 0 
9412 0 45.66 6.44245e+17 12985.1 1285.96 588.692 1049.19 184.505 3.4364 3.77322e+17 4.54643e+14 0 1.2835e+17 1.15511e+17 0 2.26067e+16 0 0 0 
13508 0 33.3011 4.69866e+17 16115 1283.82 560.579 1502.35 214.605 -6.80287 2.80044e+17 3.44902e+14 0 9.12579e+16 8.0707e+16 0 1.75116e+16 0 0 0 
17604 0 40.5367 5.71957e+17 13257 1333.31 599.032 1106.16 231.92 5.70088 3.35464e+17 4.85998e+14 0 1.15087e+17 1.00163e+17 0 2.07568e+16 0 0 0 
4868 0 57.7911 8.1541e+17 9860.81 1331.11 609.726 650.487 194.899 -1.84547 4.72782e+17 4.23288e+14 0 1.73109e+17 1.41661e+17 0 2.74354e+16 0 0 0 
8964 0 78.1267 1.10234e+18 7669.61 1297.04 619.245 442.296 196.729 1.60506 6.36516e+17 8.15222e+14 0 2.33514e+17 1.92032e+17 1.56773e+13 3.94442e+16 0 0 0 
13060 0 52.3544 7.38701e+17 10572.3 1309.88 611.54 769.132 247.697 -1.16106 4.31817e+17 5.3303e+14 0 1.5055e+17 1.30341e+17 0 2.546e+16 0 0 0 
17156 0 68.8744 9.71792e+17 8426.11 1310.27 622.011 528.021 247.753 -3.19472 5.755e+17 5.64385e+14 0 1.99996e+17 1.61978e+17 0 3.37533e+16 0 0 0 
4740 0 74.7056 1.05407e+18 16382.4 1699.1 649.512 1857.52 41.2321 -12.1891 6.02277e+17 6.11417e+14 0 2.16081e+17 2.01234e+17 0 3.38631e+16 0 0 0 
8836 0 106.357 1.50065e+18 12207.9 1765.44 683.137 1136.08 51.7744 6.55574 8.53444e+17 8.62254e+14 0 3.16181e+17 2.80483e+17 0 4.96815e+16 0 0 0 
12932 0 68.1556 9.61649e+17 11197.3 1437.61 657.161 842.606 74.9822 -1.98214 5.48723e+17 1.28554e+15 0 2.0379e+17 1.76088e+17 0 3.17623e+16 0 0 0 
17028 0 99.1767 1.39934e+18 7990.84 1448.48 641.292 476.083 93.6653 -0.868636 7.93196e+17 9.24964e+14 0 3.05222e+17 2.53644e+17 0 4.63579e+16 0 0 0 
5764 0 64.9978 9.17094e+17 7630.23 1274.77 631.448 342.074 122.295 -0.865939 5.20566e+17 6.42771e+14 0 1.95277e+17 1.68751e+17 0 3.18564e+16 0 0 0 
9860 0 91.7978 1.29523e+18 5464.98 1254.16 617.695 141.552 135.302 -3.2559 7.49236e+17 8.46577e+14 0 2.76157e+17 2.2486e+17 0 4.41317e+16 0 0 0 
13956 0 61.9778 8.74483e+17 7678.13 1259.51 610.164 354.291 156.453 -1.57243 5.06958e+17 6.11417e+14 0 1.81763e+17 1.55974e+17 0 2.91755e+16 0 0 0 
18052 0 85.7489 1.20988e+18 5834.29 1220.48 603.885 193.402 166.812 -2.8482 7.08475e+17 9.09286e+14 0 2.50477e+17 2.08995e+17 0 4.10276e+16 0 0 0 
84 1 33.7256 1.18964e+17 17655 777.501 317.122 5459.14 245.385 -4.4396 9.30216e+16 2.74354e+13 0 1.05273e+16 1.03275e+16 0 5.05986e+15 0 0 0 
212 1 28.4256 1.00268e+17 12366.1 565.246 243.104 6277.65 172.246 -3.80163 8.41599e+16 1.1758e+13 0 5.71439e+15 5.94955e+15 0 4.43277e+15 0 0 0 
92 1 26.0022 9.17203e+16 8181.9 446.169 213.831 6747.93 120.316 -1.33532 8.05973e+16 3.91934e+12 0 3.47645e+15 3.49997e+15 0 4.14274e+15 0 0 0 
220 1 24.4822 8.63587e+16 5341.88 307.166 177.977 7025.82 85.6669 -0.884634 7.81633e+16 3.91934e+12 0 2.14388e+15 2.29281e+15 0 3.75473e+15 0 0 0 
588 1 37.1078 2.61788e+17 21252.8 1110.66 484.188 2715.69 274.417 0.0562245 1.67708e+17 1.25419e+14 0 4.35282e+16 4.05808e+16 0 9.84538e+15 0 0 0 
1612 1 28.8189 2.03312e+17 22035.8 1050.71 459.134 3134.01 315.046 5.63139 1.33712e+17 7.83867e+13 0 3.12606e+16 3.01162e+16 0 8.14438e+15 0 0 0 
2124 1 34.2856 2.41878e+17 20230.4 1247.14 506.695 2604.37 387.656 -0.324249 1.54728e+17 1.1758e+14 0 4.05965e+16 3.70769e+16 0 9.35938e+15 0 0 0 
716 1 24.3711 1.71933e+17 22337.1 955.492 387.004 3993.5 297.86 1.59684 1.19947e+17 1.33257e+14 0 2.36101e+16 2.13761e+16 0 6.86668e+15 0 0 0 
1228 1 27.39 1.93231e+17 21843.5 1095.18 438.035 3713.86 358.414 1.77738 1.3263e+17 1.95967e+14 0 2.78038e+16 2.51386e+16 0 7.46242e+15 0 0 0 
1740 1 19.7211 1.39129e+17 21285.5 957.623 391.416 4582.19 287.111 -5.94371 1.01268e+17 1.56773e+13 0 1.64142e+16 1.53638e+16 0 6.06713e+15 0 0 0 
2252 1 20.9244 1.47618e+17 21467.2 1040.11 393.35 4311.12 342.819 3.03686 1.06002e+17 6.27094e+13 0 1.83582e+16 1.7151e+16 0 6.04362e+15 0 0 0 
148 1 35.1822 1.24102e+17 17323.6 927.922 342.239 5352.66 317.492 2.47758 9.56201e+16 1.95967e+13 0 1.19305e+16 1.13622e+16 0 5.16961e+15 0 0 0 
276 1 29.03 1.02401e+17 12064.4 709.266 260.52 6249.63 213.037 0.848181 8.49595e+16 3.91934e+13 0 6.43163e+15 6.32189e+15 0 4.64833e+15 0 0 0 
156 1 26.0478 9.1881e+16 8152.47 458.747 207.5 6729.3 147.456 -4.38224 8.02092e+16 7.83867e+12 0 3.7704e+15 3.73121e+15 0 4.16234e+15 0 0 0 
284 1 24.7344 8.72484e+16 5660.06 346.458 184.74 6985.64 106.159 1.08671 7.83319e+16 0 0 2.41431e+15 2.3712e+15 0 4.13098e+15 0 0 0 
780 1 29.4244 2.07584e+17 20848.4 1222.89 484.503 3393.15 431.687 2.19913 1.40061e+17 1.64612e+14 0 3.16291e+16 2.75921e+16 0 8.13654e+15 0 0 0 
1804 1 22.4856 1.58631e+17 20710.6 1071.18 431.284 4237.79 390.961 -2.58175 1.12853e+17 8.62254e+13 0 2.04589e+16 1.8899e+16 0 6.33365e+15 0 0 0 
5196 1 24.26 3.42299e+17 19245.2 1184.77 517.705 2146.68 302.258 5.16147 2.14827e+17 3.29224e+14 0 6.11103e+16 5.28327e+16 0 1.32003e+16 0 0 0 
9292 1 27.99 3.94928e+17 16748.5 1263.94 565.915 1725.98 342.99 -2.36418 2.39252e+17 2.3516e+14 0 7.48437e+16 6.69266e+16 0 1.36706e+16 0 0 0 
13388 1 21.07 2.9729e+17 19633 1185.43 557.592 2369.2 339.153 -1.89924 1.8631e+17 1.88128e+14 0 5.33814e+16 4.61071e+16 0 1.13034e+16 0 0 0 
17484 1 23.8811 3.36953e+17 18444 1322.42 540.455 2129.99 366.771 4.71472 2.09026e+17 3.13547e+14 0 6.08751e+16 5.50589e+16 0 1.16796e+16 0 0 0 
5828 1 20.32 2.86707e+17 18886.8 1137.8 495.552 1924.34 222.194 0.545802 1.73893e+17 2.3516e+14 0 5.38987e+16 4.82235e+16 0 1.04568e+16 0 0 0 
9924 1 24.5878 3.46924e+17 17428.8 1206.97 555.898 1719.14 230.815 -9.90276 2.1028e+17 2.3516e+14 0 6.4622e+16 5.97621e+16 0 1.20245e+16 0 0 0 
14020 1 18.9756 2.67738e+17 19539.4 1027.02 507.895 2063.69 256.115 -3.26942 1.66635e+17 1.72451e+14 0 4.61541e+16 4.34419e+16 0 1.13347e+16 0 0 0 
18116 1 22.1444 3.1245e+17 17914 1171.9 542.152 1824.5 266.373 4.56652 1.90605e+17 1.88128e+14 0 5.76926e+16 5.27072e+16 0 1.12563e+16 0 0 0 
6340 1 29.0289 4.09586e+17 15266.7 1334.84 550.918 1351.32 258.06 -1.80134 2.44018e+17 1.88128e+14 0 7.96566e+16 7.07205e+16 0 1.50032e+16 0 0 0 
10436 1 35.7533 5.04466e+17 13255.3 1264.1 585.547 1083.56 280.934 -2.48899 2.97493e+17 2.9787e+14 0 1.02389e+17 8.72758e+16 0 1.70099e+16 0 0 0 
14532 1 26.15 3.68966e+17 15956.7 1229.16 552.164 1498.04 292.291 -5.02884 2.2091e+17 1.88128e+14 0 7.18806e+16 6.30543e+16 0 1.29338e+16 0 0 0 
18628 1 31.5811 4.45597e+17 14035.6 1308.17 563.595 1219.42 312.939 3.94888 2.65261e+17 4.07611e+14 0 8.60686e+16 7.76342e+16 0 1.62261e+16 0 0 0 
5892 1 45.4889 6.41831e+17 10527.1 1253.42 597.317 746.568 294.23 1.40171 3.78749e+17 3.29224e+14 0 1.29213e+17 1.09365e+17 0 2.41745e+16 0 0 0 
9988 1 59.23 8.35712e+17 8684.49 1307.59 604.719 561.214 296.76 3.73405 4.95592e+17 6.58449e+14 0 1.73423e+17 1.37506e+17 0 2.85328e+16 0 0 0 
14084 1 39.0489 5.50965e+17 11933.3 1285.88 604.337 960.319 333.509 6.18861 3.28613e+17 3.60579e+14 0 1.09083e+17 9.28569e+16 0 2.00513e+16 0 0 0 
18180 1 48.6722 6.86746e+17 9812.84 1256.07 595.04 717.661 354.955 -1.62543 4.11154e+17 4.85998e+14 0 1.39528e+17 1.12736e+17 0 2.28419e+16 0 0 0 
4748 1 33.2144 4.68643e+17 14761.6 1311.42 597.501 1435.87 383.69 2.23621 2.84622e+17 4.38966e+14 0 8.92982e+16 7.81046e+16 0 1.6179e+16 0 0 0 
8844 1 39.7633 5.61045e+17 12910.3 1325.11 582.126 1215.05 394.236 2.12749 3.37753e+17 3.60579e+14 0 1.12595e+17 9.16968e+16 0 1.86404e+16 0 0 0 
12940 1 26.9389 3.80097e+17 16465.5 1299.34 576.351 1798.4 406.862 6.35744 2.34596e+17 3.13547e+14 0 7.02659e+16 6.13925e+16 0 1.35296e+16 0 0 0 
17036 1 31.0211 4.37696e+17 14736.8 1429.9 586.081 1565.2 444.785 -0.896952 2.67362e+17 2.03806e+14 0 8.41874e+16 6.91685e+16 0 1.67748e+16 0 0 0 
5772 1 21.7767 3.0726e+17 17889.2 1345.83 560.924 2133.12 442.045 6.30576 1.89962e+17 1.88128e+14 0 5.69245e+16 4.88506e+16 0 1.13347e+16 0 0 0 
9868 1 24.0044 3.38693e+17 16627.2 1376.91 594.344 1988.34 475.707 6.8002 2.09199e+17 3.60579e+14 0 6.39166e+16 5.35381e+16 0 1.16796e+16 0 0 0 
13964 1 18.0133 2.54161e+17 19429.6 1237.11 530.919 2533.81 444.879 -5.29124 1.62856e+17 1.09741e+14 0 4.42258e+16 3.8096e+16 0 8.87338e+15 0 0 0 
18060 1 19.1378 2.70027e+17 18620 1373.74 553.818 2477.86 472.83 11.3467 1.72419e+17 3.29224e+14 0 4.61384e+16 4.10903e+16 0 1.00492e+16 0 0 0 
73 1 24.2389 8.55003e+16 6045.96 198.307 155.473 7018.2 12.3613 0.983299 7.76342e+16 0 0 1.77154e+15 2.30065e+15 0 3.79392e+15 0 0 0 
137 1 25.4822 8.98861e+16 8888.11 247.562 175.914 6759.47 24.4364 -0.0364456 7.92647e+16 7.83867e+12 0 3.03749e+15 3.58227e+15 0 3.9938e+15 0 0 0 
201 1 23.89 8.42697e+16 5008.25 172.579 154.323 7104.14 14.0646 1.80457 7.70346e+16 3.91934e+12 0 1.4188e+15 1.8852e+15 0 3.92718e+15 0 0 0 
265 1 25.0722 8.84398e+16 7730.06 228.229 168.667 6864.34 28.5942 0.363184 7.88022e+16 3.91934e+12 0 2.54757e+15 3.16682e+15 0 3.91934e+15 0 0 0 
81 1 23.6956 8.35838e+16 4424.5 177.427 150.716 7148.7 20.3106 -0.813069 7.68739e+16 7.83867e+12 0 1.38353e+15 1.66964e+15 0 3.6489e+15 0 0 0 
145 1 24.5256 8.65115e+16 6085.73 232.721 159.226 7006.92 29.5145 -1.18181 7.81633e+16 3.91934e+12 0 2.0067e+15 2.40647e+15 0 3.9311e+15 0 0 0 
209 1 23.4367 8.26706e+16 3450.54 174.253 145.434 7227.48 15.2885 -2.73878 7.64584e+16 0 0 1.01903e+15 1.4188e+15 0 3.77432e+15 0 0 0 
273 1 23.7822 8.38895e+16 4759.02 204.419 154.356 7117.1 28.992 -2.64846 7.69915e+16 0 0 1.34041e+15 1.81073e+15 0 3.74689e+15 0 0 0 
89 1 23.1733 8.17417e+16 2891.71 173.147 145.073 7269.62 15.6619 -1.55471 7.61566e+16 0 0 8.03464e+14 1.14445e+15 0 3.63715e+15 0 0 0 
153 1 23.4689 8.27842e+16 3581.04 186.004 148.58 7211.95 22.6415 0.738628 7.63565e+16 3.91934e+12 0 1.01903e+15 1.4384e+15 0 3.96637e+15 0 0 0 
217 1 22.9056 8.07971e+16 2132.69 158.635 145.3 7324.79 13.6535 3.04285 7.57255e+16 0 0 5.56546e+14 8.62254e+14 0 3.65282e+15 0 0 0 
281 1 23.2833 8.21297e+16 2701.43 175.383 148.672 7279.51 21.3873 0.0224527 7.63056e+16 0 0 8.50496e+14 1.0739e+15 0 3.89974e+15 0 0 0 
74 1 27.6922 9.76816e+16 12962.2 347.261 204.081 6327.95 45.035 1.75478 8.25491e+16 2.3516e+13 0 4.96972e+15 5.82805e+15 0 4.31127e+15 0 0 0 
138 1 31.2867 1.10361e+17 17580.9 508.71 243.519 5706.88 79.9046 2.22222 8.82282e+16 5.09514e+13 0 8.43833e+15 8.87338e+15 0 4.76983e+15 0 0 0 
202 1 26.3789 9.3049e+16 10649.7 325.444 190.34 6575.75 47.9954 -1.62725 8.06364e+16 7.83867e+12 0 3.94285e+15 4.45629e+15 0 4.00556e+15 0 0 0 
266 1 28.7122 1.0128e+17 14372.8 455.361 235.328 6134.93 82.2161 -0.242367 8.41364e+16 1.1758e+13 0 6.17296e+15 6.58449e+15 0 4.37398e+15 0 0 0 
82 1 25.3778 8.95177e+16 8485.59 290.024 179.228 6785.54 47.7748 -2.18574 7.93823e+16 3.91934e+12 0 2.81016e+15 3.34711e+15 0 3.97421e+15 0 0 0 
146 1 26.8844 9.48323e+16 11247.8 381.433 198.414 6495.15 74.8505 -0.173115 8.14752e+16 3.91934e+12 0 4.21329e+15 4.86782e+15 0 4.27208e+15 0 0 0 
210 1 24.7733 8.73855e+16 6458.52 251.248 168.13 6965.35 43.7924 0.579844 7.8763e+16 1.56773e+13 0 2.04981e+15 2.50446e+15 0 4.05259e+15 0 0 0 
274 1 25.1411 8.86828e+16 8098.75 312.127 181.102 6810.92 60.8459 -1.56938 7.86023e+16 1.1758e+13 0 2.96302e+15 3.07668e+15 0 4.02908e+15 0 0 0 
90 1 23.9722 8.45597e+16 4552.53 226.215 155.351 7127.17 31.9448 -0.205717 7.75206e+16 3.91934e+12 0 1.39528e+15 1.81857e+15 0 3.82135e+15 0 0 0 
154 1 24.2878 8.56728e+16 5479.51 251.691 164.288 7040.37 48.5959 -1.31172 7.77244e+16 3.91934e+12 0 1.81465e+15 2.32417e+15 0 3.80568e+15 0 0 0 
218 1 23.3178 8.22512e+16 3287.48 185.067 150.917 7232.41 30.4755 -2.9597 7.63918e+16 0 0 9.56318e+14 1.34433e+15 0 3.55876e+15 0 0 0 
282 1 23.7378 8.37327e+16 3895.49 218.948 156.063 7174.73 39.9169 0.884274 7.70659e+16 3.91934e+12 0 1.22283e+15 1.57949e+15 0 3.86055e+15 0 0 0 
91 1 24.9733 8.8091e+16 6798.92 325.655 182.741 6912.87 70.9439 -1.0212 7.87277e+16 2.3516e+13 0 2.3908e+15 2.80625e+15 0 4.14274e+15 0 0 0 
219 1 23.9233 8.43873e+16 4461.27 265.904 163.432 7122.66 52.6136 1.65072 7.72305e+16 0 0 1.58341e+15 1.77546e+15 0 3.79784e+15 0 0 0 
75 1 37.5111 1.32317e+17 21523.2 717.443 315.624 4868.4 130.643 1.21667 9.90613e+16 5.87901e+13 0 1.37216e+16 1.4137e+16 0 5.33814e+15 0 0 0 
203 1 32.5756 1.14907e+17 18029.2 583.372 282.26 5574.92 130.896 -2.49877 9.05798e+16 3.91934e+13 0 9.39465e+15 9.77483e+15 0 5.11865e+15 0 0 0 
83 1 28.7211 1.01311e+17 14197.9 450.154 228.282 6130.2 117.919 -1.66129 8.39091e+16 1.95967e+13 0 6.15728e+15 6.65112e+15 0 4.57387e+15 0 0 0 
211 1 26.4422 9.32724e+16 9681.12 380.861 195.333 6632.9 91.6319 -2.54305 8.08598e+16 0 0 3.72337e+15 4.52683e+15 0 4.16234e+15 0 0 0 
1731 1 18.0311 1.27206e+17 22497.6 724.62 324.345 4595.99 93.2569 -12.6378 9.21985e+16 6.27094e+13 0 1.45956e+16 1.44937e+16 0 5.85549e+15 0 0 0 
2243 1 21.0744 1.48676e+17 23568 826.007 361.501 3943.3 119.272 1.98742 1.02459e+17 7.83867e+13 0 2.04825e+16 1.96124e+16 0 6.04362e+15 0 0 0 
155 1 25.4744 8.98586e+16 7694.95 384.35 187.909 6824.15 93.8882 2.85338 7.9543e+16 3.91934e+12 0 2.93558e+15 3.20602e+15 0 4.17017e+15 0 0 0 
283 1 24.1578 8.52142e+16 4875.3 266.363 171.925 7081.98 68.3466 -2.55944 7.72501e+16 7.83867e+12 0 1.70491e+15 2.21443e+15 0 4.03692e+15 0 0 0 
267 1 37.9111 1.33728e+17 21064.8 798.728 332.712 4800.5 214.967 3.20681 9.87359e+16 5.09514e+13 0 1.43448e+16 1.48425e+16 0 5.75359e+15 0 0 0 
147 1 31.5744 1.11376e+17 16268.2 608.582 266.998 5797.73 172.234 -0.112618 8.95882e+16 1.56773e+13 0 8.26196e+15 8.60686e+15 0 4.90309e+15 0 0 0 
275 1 27.27 9.61923e+16 11388.7 475.782 218.82 6431.89 129.349 2.55438 8.20592e+16 3.13547e+13 0 5.01283e+15 4.93053e+15 0 4.15842e+15 0 0 0 
651 1 24.4744 1.72662e+17 23252.2 895.608 373.989 3920.65 180.407 -0.847305 1.19712e+17 5.48707e+13 0 2.29438e+16 2.30143e+16 0 6.93723e+15 0 0 0 
1163 1 29.9644 2.11393e+17 22751.8 1039.46 436.452 3284.22 225.333 5.97865 1.39771e+17 1.33257e+14 0 3.2311e+16 3.13704e+16 0 7.80732e+15 0 0 0 
1675 1 20.85 1.47093e+17 22770.2 893.116 358.082 4228.36 201.656 -2.3146 1.04333e+17 3.91934e+13 0 1.89696e+16 1.77389e+16 0 6.01226e+15 0 0 0 
2187 1 24.1789 1.70577e+17 22838.7 994.018 420.31 3641.34 252.749 2.73572 1.15111e+17 7.83867e+13 0 2.49427e+16 2.32495e+16 0 7.1959e+15 0 0 0 
1795 1 25.0222 1.76527e+17 23266.9 1010.69 419.059 3266.58 157.09 -0.811034 1.16028e+17 1.1758e+14 0 2.72472e+16 2.56952e+16 0 7.4389e+15 0 0 0 
2307 1 32.2356 2.27416e+17 21388.1 1057.9 480.209 2554.77 202.722 1.76245 1.43565e+17 1.01903e+14 0 3.83938e+16 3.62852e+16 0 9.06935e+15 0 0 0 
1292 2 30.9467 2.18323e+17 19770.2 1387.05 520.048 3414.44 483.361 3.09449 1.45948e+17 1.01903e+14 0 3.4545e+16 2.95753e+16 0 8.15222e+15 0 0 0 
2316 2 22.8089 1.60912e+17 19708.6 1300.72 467.523 4269.48 430.044 -2.79567 1.13057e+17 1.01903e+14 0 2.18307e+16 1.92675e+16 0 6.65503e+15 0 0 0 
5252 2 181.616 2.56253e+18 7445.25 1569.96 689.247 526.319 61.3927 7.84415 1.48463e+18 1.59909e+15 0 5.44098e+17 4.56603e+17 0 7.55962e+16 0 0 0 
13444 2 162.242 2.28918e+18 5078.17 1334.26 639.478 190.65 118.788 -2.77885 1.34869e+18 1.83425e+15 0 4.80244e+17 3.86462e+17 0 7.19434e+16 0 0 0 
17540 2 342.951 4.83891e+18 2511.12 1102.33 593.687 15.6441 110.277 -0.165563 3.02737e+18 3.79392e+15 0 9.65474e+17 6.91763e+17 0 1.50503e+17 0 0 0 
6276 2 140.379 1.98069e+18 4102.49 1227.71 619.131 71.3825 146.646 3.87197 1.17395e+18 1.44232e+15 0 4.14901e+17 3.22546e+17 0 6.78516e+16 0 0 0 
10372 2 242.416 3.42039e+18 2475.42 1059.44 579.571 -1.26625 127.776 1.57418 2.12489e+18 2.66515e+15 0 6.8927e+17 4.91893e+17 0 1.1167e+17 0 0 0 
14468 2 123.67 1.74494e+18 4270.42 1186.06 609.449 87.7583 165.006 3.21429 1.03718e+18 1.75586e+15 0 3.65423e+17 2.83274e+17 0 5.73007e+16 0 0 0 
18564 2 200.976 2.83569e+18 2799.18 1056.55 581.468 23.9028 122.759 -2.94987 1.74801e+18 1.41096e+15 0 5.8638e+17 4.09179e+17 0 9.07091e+16 0 0 0 
5260 2 47.8944 6.75772e+17 11196.3 1378.51 616.258 1032.68 430.008 4.32371 4.09837e+17 3.44902e+14 0 1.32411e+17 1.09287e+17 0 2.38923e+16 0 0 0 
9356 2 56.1211 7.91847e+17 9408.63 1386.42 621.609 873.691 451.354 -0.0688276 4.86108e+17 6.58449e+14 0 1.56115e+17 1.22346e+17 0 2.66201e+16 0 0 0 
13452 2 34.7711 4.90607e+17 13864.3 1410.92 606.93 1505.6 467.947 3.10181 3.04297e+17 3.60579e+14 0 9.19477e+16 7.65368e+16 0 1.74646e+16 0 0 0 
17548 2 37.9844 5.35946e+17 12506.8 1481.63 613.795 1408.9 515.22 -8.8614 3.27233e+17 4.7032e+14 0 1.05587e+17 8.18514e+16 0 2.08038e+16 0 0 0 
6284 2 25.7989 3.64012e+17 16012.6 1415.3 574.163 1958.81 506.45 -2.83408 2.24703e+17 2.03806e+14 0 6.9043e+16 5.65952e+16 0 1.34668e+16 0 0 0 
10380 2 26.8044 3.782e+17 14564.5 1508.36 607.61 1818.93 562.965 3.50796 2.33201e+17 3.29224e+14 0 7.13633e+16 5.99188e+16 0 1.33885e+16 0 0 0 
14476 2 20.4911 2.89122e+17 17790.8 1479.86 557.492 2421.83 510.762 -1.69895 1.85212e+17 1.41096e+14 0 5.04027e+16 4.42101e+16 0 9.15557e+15 0 0 0 
18572 2 20.8678 2.94436e+17 17363.8 1470.19 604.69 2480.53 553.336 -2.95181 1.90182e+17 2.03806e+14 0 5.07789e+16 4.3097e+16 0 1.01746e+16 0 0 0 
5380 2 112.643 1.58935e+18 5809.92 1274.82 623.185 278.995 181.445 0.76876 9.43573e+17 1.20716e+15 0 3.27813e+17 2.64257e+17 0 5.25034e+16 0 0 0 
9476 2 178.481 2.5183e+18 3647.4 1151.57 593.683 116.291 146.482 1.22402 1.55334e+18 2.22618e+15 0 5.05547e+17 3.78749e+17 0 7.84338e+16 0 0 0 
13572 2 98.3711 1.38798e+18 6026.1 1279.11 616.927 297.548 230.432 -2.16745 8.22779e+17 7.99545e+14 0 2.88353e+17 2.2845e+17 0 4.75964e+16 0 0 0 
17668 2 153.203 2.16164e+18 4093.21 1148.26 605.697 145.882 198.022 4.96183 1.3237e+18 1.3169e+15 0 4.37226e+17 3.31952e+17 0 6.7444e+16 0 0 0 
6404 2 80.8422 1.14065e+18 6565.61 1260.18 605.94 359.924 293.605 4.24976 6.87279e+17 8.77932e+14 0 2.34282e+17 1.81998e+17 0 3.62147e+16 0 0 0 
10500 2 120.151 1.69529e+18 4681.39 1187.1 603.085 206.84 265.645 0.431542 1.02342e+18 1.14445e+15 0 3.50342e+17 2.68835e+17 0 5.15471e+16 0 0 0 
14596 2 64.0422 9.03611e+17 8171.28 1232.08 602.233 566.849 360.234 -2.39663 5.45854e+17 8.93609e+14 0 1.79945e+17 1.46364e+17 0 3.05552e+16 0 0 0 
18692 2 84.0833 1.18638e+18 5984.25 1226.69 600.263 369.611 351.37 -2.33962 7.24921e+17 1.01903e+15 0 2.40114e+17 1.80823e+17 0 3.95069e+16 0 0 0 
8 3 9.03889 1.59419e+16 8172.9 3414.5 927.749 4824.41 -180.005 -8.84496 9.64353e+15 9.79834e+12 0 3.10216e+15 2.63184e+15 0 5.54586e+14 0 0 0 
7 3 7.96333 1.40449e+16 8856.97 3824.06 991.753 4395.76 -341.333 -3.4279 8.10127e+15 7.83867e+12 0 2.98458e+15 2.44175e+15 0 5.09514e+14 0 0 0 
80 3 24.8589 8.76873e+16 4984.87 1458.16 441.477 6473.02 26.9213 -1.34349 6.59977e+16 4.7032e+13 0 9.68076e+15 8.70093e+15 0 3.26089e+15 0 0 0 
144 3 24.1733 8.52691e+16 4743.93 1405.78 437.059 6545.96 14.8639 -8.33739 6.5257e+16 5.48707e+13 0 8.81851e+15 7.79556e+15 0 3.34319e+15 0 0 0 
208 3 28.2567 9.96727e+16 4736.35 1327.21 405.161 6599.28 118.073 2.84666 7.82652e+16 3.13547e+13 0 9.78659e+15 7.93666e+15 0 3.65282e+15 0 0 0 
272 3 27.6967 9.76973e+16 4354.49 1228.98 400.099 6668.35 105.987 1.72033 7.70973e+16 3.91934e+13 0 8.83027e+15 7.96801e+15 0 3.76256e+15 0 0 0 
88 3 27.1444 9.57494e+16 4013.5 1034.46 333.325 6837.82 142.198 -1.50734 7.96997e+16 3.5274e+13 0 6.58449e+15 5.42044e+15 0 4.00948e+15 0 0 0 
152 3 26.9444 9.50439e+16 3687.05 1003.75 324.153 6875.3 127.768 -2.60335 7.93783e+16 2.3516e+13 0 6.30621e+15 5.54978e+15 0 3.78608e+15 0 0 0 
216 3 25.7289 9.07562e+16 3347.36 814.915 282.241 7012.77 130.103 -2.15514 7.89198e+16 1.56773e+13 0 4.25248e+15 3.53916e+15 0 4.02908e+15 0 0 0 
280 3 25.9667 9.15949e+16 3084.97 789.691 278.185 7028.47 127.604 -0.0966391 7.96057e+16 2.74354e+13 0 4.33479e+15 3.71553e+15 0 3.9115e+15 0 0 0 
96 3 24.9267 8.79264e+16 2818.04 617.772 233.993 7123.54 118.755 -0.159404 7.8324e+16 2.3516e+13 0 2.97478e+15 2.50838e+15 0 4.09571e+15 0 0 0 
160 3 25.1133 8.85849e+16 2651.85 624.298 240.977 7126.41 118.83 4.35621 7.89786e+16 1.56773e+13 0 3.05316e+15 2.59852e+15 0 3.93893e+15 0 0 0 
224 3 24.22 8.54337e+16 2390.26 541.047 207.375 7204.16 111.069 0.0457424 7.76382e+16 7.83867e+12 0 2.16347e+15 1.72451e+15 0 3.89974e+15 0 0 0 
288 3 24.1322 8.51241e+16 2157.61 482.718 203.935 7226.41 104.248 -2.57639 7.7595e+16 7.83867e+12 0 1.94791e+15 1.70883e+15 0 3.86447e+15 0 0 0 
79 3 27.7033 9.77208e+16 5723.76 1720.76 531.145 6268.47 44.3516 3.95775 6.99563e+16 4.31127e+13 0 1.26516e+16 1.13308e+16 0 3.73905e+15 0 0 0 
143 3 26.2811 9.27041e+16 5351.83 1598.66 468.13 6382.96 29.4143 1.89515 6.81063e+16 2.3516e+13 0 1.08095e+16 1.03118e+16 0 3.45294e+15 0 0 0 
207 3 30.0711 1.06073e+17 5455.04 1497.91 441.48 6482.59 151.012 -6.08725 8.18671e+16 4.31127e+13 0 1.03745e+16 9.69252e+15 0 4.09571e+15 0 0 0 
271 3 29.2089 1.03032e+17 4952.82 1359.8 438.638 6559.95 128.292 -1.82293 8.01465e+16 7.05481e+13 0 1.01001e+16 9.04583e+15 0 3.6685e+15 0 0 0 
87 3 27.95 9.85909e+16 4869.6 1130.84 363.404 6744.78 176.671 1.85389 8.16712e+16 3.91934e+12 0 7.07832e+15 5.88684e+15 0 3.95069e+15 0 0 0 
151 3 27.5689 9.72466e+16 4319.12 1065.62 342.996 6806.98 155.094 -0.725659 8.08716e+16 1.56773e+13 0 6.69423e+15 5.80062e+15 0 3.86447e+15 0 0 0 
215 3 26.3856 9.30725e+16 4285.9 837.052 282.07 6920.2 166.244 -0.284749 8.0366e+16 7.83867e+12 0 4.59738e+15 3.94677e+15 0 4.1545e+15 0 0 0 
279 3 26.1311 9.2175e+16 3725.41 823.925 264.975 6977.12 150.04 -0.903735 8.02719e+16 2.74354e+13 0 4.32695e+15 3.75473e+15 0 3.79392e+15 0 0 0 
95 3 25.1411 8.86828e+16 3633.31 619.366 228.063 7064.89 149.098 -0.448882 7.89472e+16 1.56773e+13 0 3.04141e+15 2.78665e+15 0 3.8919e+15 0 0 0 
159 3 25.0044 8.82008e+16 3203.19 608.051 243.819 7096.01 135.043 2.58329 7.86885e+16 3.5274e+13 0 2.90423e+15 2.68083e+15 0 3.8919e+15 0 0 0 
223 3 24.2133 8.54102e+16 2953.65 463.767 200.767 7170.23 119.181 3.54365 7.76421e+16 7.83867e+12 0 2.06549e+15 1.75194e+15 0 3.94285e+15 0 0 0 
287 3 24.33 8.58217e+16 2647.34 499.165 201.64 7185.09 117.737 4.28319 7.81242e+16 1.1758e+13 0 2.08901e+15 1.83425e+15 0 3.76256e+15 0 0 0 
142 3 30.3389 1.07018e+17 6311.46 1827.82 541.301 6135.14 56.4419 2.96782 7.58549e+16 4.31127e+13 0 1.45211e+16 1.29848e+16 0 3.61363e+15 0 0 0 
270 3 31.2756 1.10322e+17 6228.19 1590.58 452.697 6381.35 186.895 6.62265 8.45401e+16 1.56773e+13 0 1.15777e+16 9.89241e+15 0 4.29559e+15 0 0 0 
150 3 28.5889 1.00845e+17 5988.08 1161.44 368.301 6627.7 216.115 -0.658604 8.3137e+16 4.31127e+13 0 7.35268e+15 6.18863e+15 0 4.12314e+15 0 0 0 
278 3 26.7478 9.43502e+16 5207.94 878.346 286.616 6838.21 193.691 1.36819 8.09382e+16 7.83867e+12 0 4.90309e+15 4.24072e+15 0 4.26032e+15 0 0 0 
158 3 25.4656 8.98273e+16 4333.24 636.096 231.155 7003.63 155.275 3.82856 7.93235e+16 7.83867e+12 0 3.4255e+15 3.05316e+15 0 4.01732e+15 0 0 0 
286 3 24.1167 8.50692e+16 3556.73 498.703 205.833 7120.39 131.501 1.78655 7.71874e+16 1.95967e+13 0 2.17523e+15 1.96359e+15 0 3.72337e+15 0 0 0 
5 3 162.929 2.78641e+18 3006.37 1018.51 570.905 114.289 187.411 0.846717 1.79335e+18 2.09024e+15 0 5.29839e+17 3.73584e+17 0 8.75433e+16 0 0 0 
5 3 2.09778 1.48878e+16 8984.96 3038.64 998.572 2597.54 -683.867 -24.9117 8.12996e+15 7.88551e+12 0 3.38288e+15 2.6101e+15 0 7.57009e+14 0 0 0 
149 3 31.6644 1.11693e+17 10513.3 1220.03 374.407 6143.33 306.241 -1.08348 8.89415e+16 1.95967e+13 0 9.69252e+15 8.31683e+15 0 4.7228e+15 0 0 0 
277 3 27.8678 9.83009e+16 8413.82 837.951 290.92 6546.84 232.748 -2.52753 8.29214e+16 1.1758e+13 0 5.99659e+15 5.17353e+15 0 4.19761e+15 0 0 0 
157 3 25.9733 9.16184e+16 6340.72 646.713 234.242 6841.36 172.032 3.06351 8.03699e+16 1.1758e+13 0 4.02908e+15 3.33928e+15 0 3.86839e+15 0 0 0 