ITEM: TIMESTEP
20000
ITEM: NUMBER OF CELLS
240
ITEM: BOX BOUNDS oo ao pp
-10 10
0 10
-0.5 0.5
ITEM: CELLS id proc f_avg_n f_avg_nrho f_avg_temp_tra f_avg_temp_rot f_avg_temp_vib f_avg_vel[1] f_avg_vel[2] f_avg_vel[3] f_avg_nrho_CO2 f_avg_nrho_O2 f_avg_nrho_C2 f_avg_nrho_CO f_avg_nrho_O f_avg_nrho_C f_avg_nrho_N2 f_avg_nrho_N f_avg_nrho_NO f_avg_nrho_CN 
65 0 24.7157 8.71823e+16 6325.34 189.252 156.98 6997.31 10.8162 -0.0897104 7.86964e+16 0 0 1.93503e+15 2.59012e+15 0 3.96077e+15 0 0 0 
129 0 26.4243 9.32091e+16 9498.02 274.015 185.357 6701.75 24.879 -0.488928 8.12966e+16 1.00783e+13 0 3.12427e+15 4.11194e+15 0 4.66625e+15 0 0 0 
193 0 24.4343 8.61896e+16 6361.93 202.014 156.18 6993.24 9.11308 -0.89173 7.78397e+16 0 0 1.91992e+15 2.59012e+15 0 3.83983e+15 0 0 0 
257 0 25.7557 9.08508e+16 9716.04 253.135 176.526 6685.03 14.0417 1.13505 7.9286e+16 1.51174e+13 0 3.47197e+15 3.95069e+15 0 4.12706e+15 0 0 0 
66 0 29.3729 1.0361e+17 13622.8 406.327 208.395 6252.21 31.2326 -0.41169 8.65524e+16 2.01566e+13 0 5.59849e+15 6.95906e+15 0 4.4798e+15 0 0 0 
130 0 34.3657 1.21222e+17 19013.3 534.503 274.385 5481.95 37.8264 -0.0335182 9.46402e+16 1.51174e+13 0 9.97247e+15 1.10408e+16 0 5.55314e+15 0 0 0 
194 0 28.51 1.00566e+17 14331.3 421.742 215.639 6178.93 32.0609 0.908788 8.42898e+16 1.00783e+13 0 5.69424e+15 6.35437e+15 0 4.21777e+15 0 0 0 
258 0 33.02 1.16475e+17 19209.9 530.246 261.878 5443.39 55.887 1.44511 9.10927e+16 2.51957e+13 0 9.78603e+15 1.07435e+16 0 4.8275e+15 0 0 0 
579 0 29.5529 2.0849e+17 16073.5 574.19 252.05 5886.44 61.9018 -3.6781 1.68348e+17 5.03915e+13 0 1.51678e+16 1.58128e+16 0 9.11078e+15 0 0 0 
1091 0 32.7557 2.31085e+17 18940.8 704.206 304.132 5370.29 67.9477 -6.01311 1.75836e+17 5.03915e+13 0 2.13761e+16 2.36941e+16 0 1.01287e+16 0 0 0 
1603 0 17.9957 1.26956e+17 23937.4 673.603 362.084 3914.62 28.8677 -7.04568 8.69354e+16 3.02349e+13 0 1.63772e+16 1.78083e+16 0 5.8051e+15 0 0 0 
2115 0 21.5471 1.52011e+17 23511.5 973.061 423.257 3318.5 40.6247 10.5626 9.98961e+16 3.02349e+13 0 2.27971e+16 2.32002e+16 0 6.08729e+15 0 0 0 
707 0 21.7714 1.53593e+17 21484.2 712.933 320.271 4901.27 60.4954 1.04982 1.13895e+17 4.03132e+13 0 1.58834e+16 1.6861e+16 0 6.91371e+15 0 0 0 
1219 0 24.89 1.75594e+17 23254.8 821.346 365.793 4223.33 81.6543 2.09606 1.24386e+17 9.07047e+13 0 2.21723e+16 2.25754e+16 0 6.36948e+15 0 0 0 
643 0 37.9586 2.6779e+17 21626.3 910.009 341.634 4656.09 56.2245 5.61292 1.92455e+17 5.03915e+13 0 3.23211e+16 3.34398e+16 0 9.52399e+15 0 0 0 
1667 0 27.8343 1.96366e+17 21823.8 1032.31 454.018 2522.31 78.0497 -0.759418 1.23278e+17 8.06264e+13 0 3.29762e+16 3.30467e+16 0 6.98426e+15 0 0 0 
2179 0 37.1871 2.62348e+17 18953.6 1133.78 523.804 1876.46 89.5901 1.1054 1.57292e+17 1.10861e+14 0 4.84061e+16 4.70455e+16 0 9.49375e+15 0 0 0 
771 0 29.8371 2.10495e+17 23325.2 978.115 415.981 3448.94 114.143 -2.82369 1.4025e+17 8.06264e+13 0 2.97411e+16 3.14241e+16 0 8.99992e+15 0 0 0 
1283 0 38.3357 2.70451e+17 21713.4 1086.03 479.428 2644.39 139.687 2.04553 1.70303e+17 2.31801e+14 0 4.58865e+16 4.38305e+16 0 1.01992e+16 0 0 0 
5251 0 29.8043 4.20527e+17 18121 826.694 346.36 5395.56 73.218 3.73085 3.17587e+17 8.06264e+13 0 4.04744e+16 4.53725e+16 0 1.70122e+16 0 0 0 
9347 0 31.0529 4.38144e+17 20223.7 1139.04 406.737 4771.74 48.6829 22.5869 3.09504e+17 5.64385e+14 0 5.99457e+16 5.22862e+16 0 1.58431e+16 0 0 0 
13443 0 19.6729 2.77576e+17 22653.4 1180.91 450.043 3393.22 64.0042 -0.355936 1.79777e+17 1.61253e+14 0 4.4405e+16 4.2349e+16 0 1.08846e+16 0 0 0 
17539 0 22.4329 3.16519e+17 22019 1174.85 463.197 2990.35 70.8361 -4.84242 1.97232e+17 4.83758e+14 0 5.28909e+16 5.15606e+16 0 1.43515e+16 0 0 0 
4676 0 34.9129 4.92607e+17 21331.1 1182.65 452.554 4189.35 51.5241 -5.21378 3.28311e+17 1.00783e+14 0 7.22009e+16 7.25436e+16 0 1.94511e+16 0 0 0 
8772 0 41.0329 5.78958e+17 21518.8 1373.79 490.356 3911.18 55.4398 3.49346 3.759e+17 1.81409e+14 0 9.11481e+16 9.11078e+16 0 2.06202e+16 0 0 0 
12868 0 26.9771 3.80637e+17 20593.9 1294.8 514.242 2502.19 73.6952 2.74972 2.32426e+17 1.41096e+14 0 6.70207e+16 6.62346e+16 0 1.48151e+16 0 0 0 
16964 0 31.9343 4.5058e+17 19033.4 1382.82 568.686 2099.87 78.6793 5.35532 2.65523e+17 1.81409e+14 0 8.60686e+16 8.24808e+16 0 1.63268e+16 0 0 0 
5188 0 46.8429 6.60935e+17 21224.9 1481.05 541.595 3207.65 49.9183 -12.615 4.16617e+17 5.44228e+14 0 1.14308e+17 1.05056e+17 0 2.44096e+16 0 0 0 
9284 0 58.3229 8.22913e+17 19200.1 1546.73 604.478 2508.23 51.6052 5.34682 4.90753e+17 4.43445e+14 0 1.53613e+17 1.48574e+17 0 2.95294e+16 0 0 0 
13380 0 40.1114 5.65957e+17 16688 1383.55 579.773 1660.95 62.153 2.86952 3.29339e+17 4.23288e+14 0 1.10942e+17 1.0421e+17 0 2.10435e+16 0 0 0 
17476 0 50.9743 7.19228e+17 14268.1 1540.33 637.633 1289.18 62.7316 -6.08755 4.06417e+17 4.43445e+14 0 1.51074e+17 1.364e+17 0 2.48934e+16 0 0 0 
5700 0 24.4886 3.45524e+17 16361.2 1302.01 585.807 1478.08 94.727 -3.77845 2.01485e+17 1.81409e+14 0 6.74641e+16 6.31506e+16 0 1.32429e+16 0 0 0 
9796 0 30.3671 4.28469e+17 14261.4 1263.91 575.982 1111.5 103.208 1.25744 2.46858e+17 2.41879e+14 0 8.68951e+16 7.95581e+16 0 1.49159e+16 0 0 0 
13892 0 24.3614 3.4373e+17 16641.1 1161.2 539.102 1477.4 96.022 8.95855 2.03037e+17 1.81409e+14 0 6.54485e+16 6.14575e+16 0 1.36057e+16 0 0 0 
17988 0 28.8557 4.07143e+17 14036.1 1191.91 579.278 1083.1 124.839 -3.07275 2.33373e+17 2.21723e+14 0 8.10497e+16 7.74013e+16 0 1.50973e+16 0 0 0 
6212 0 37.84 5.33908e+17 12082.1 1264.71 585.998 829.218 101.217 1.43739 3.05896e+17 4.23288e+14 0 1.10216e+17 9.81828e+16 0 1.91891e+16 0 0 0 
10308 0 48.6757 6.86796e+17 9440.54 1262.98 632.366 532 112.569 0.477107 3.913e+17 8.8689e+14 0 1.4668e+17 1.26221e+17 0 2.17086e+16 0 0 0 
14404 0 36.5329 5.15465e+17 12138.9 1185.75 581.569 859.562 139.529 -6.93272 2.9604e+17 2.01566e+14 0 1.056e+17 9.46755e+16 0 1.89472e+16 0 0 0 
18500 0 47.2171 6.66216e+17 9899.96 1258.27 591.177 585.88 149.278 4.0096 3.83257e+17 5.24071e+14 0 1.38294e+17 1.2104e+17 0 2.30995e+16 0 0 0 
4804 0 24.5014 3.45706e+17 19259.9 1166.18 528.286 2052.37 142.427 2.02385 2.10052e+17 1.41096e+14 0 6.21428e+16 6.0752e+16 0 1.2618e+16 0 0 0 
8900 0 29.3014 4.13432e+17 17391.1 1257.69 558.464 1676.66 164.453 -2.85582 2.47886e+17 3.02349e+14 0 7.9941e+16 7.05078e+16 0 1.47949e+16 0 0 0 
12996 0 22.9343 3.23594e+17 19569.5 1265.14 519.49 2158.49 180.917 -6.21781 1.98059e+17 1.2094e+14 0 5.7406e+16 5.58539e+16 0 1.21544e+16 0 0 0 
17092 0 27.2314 3.84225e+17 17942 1266.87 545.906 1818.41 192.318 -0.863117 2.30753e+17 1.61253e+14 0 7.28459e+16 6.64966e+16 0 1.39685e+16 0 0 0 
5316 0 34.9929 4.93736e+17 14305.9 1302.81 579.911 1174.62 170.486 0.589772 2.9223e+17 3.62819e+14 0 9.55624e+16 8.80238e+16 0 1.75564e+16 0 0 0 
9412 0 45.5857 6.43197e+17 12934.3 1267.72 585.791 1041.19 185.811 4.18213 3.76203e+17 4.23288e+14 0 1.27591e+17 1.16142e+17 0 2.28374e+16 0 0 0 
13508 0 33.3314 4.70294e+17 16123.3 1292.8 565.066 1507.9 214.646 -4.22986 2.806e+17 3.42662e+14 0 9.14101e+16 8.0445e+16 0 1.74959e+16 0 0 0 
17604 0 40.6243 5.73193e+17 13212.6 1326.86 598.55 1101.58 236.24 5.27457 3.3601e+17 5.03915e+14 0 1.15155e+17 1.00541e+17 0 2.0983e+16 0 0 0 
4868 0 58.1 8.19769e+17 9960.16 1317.5 608.666 663.638 192.85 -0.458358 4.75313e+17 5.03915e+14 0 1.7381e+17 1.42326e+17 0 2.78161e+16 0 0 0 
8964 0 78.3729 1.10581e+18 7690.05 1294.47 620.514 445.747 196.16 1.62796 6.3717e+17 7.86107e+14 0 2.34482e+17 1.94269e+17 2.01566e+13 3.90836e+16 0 0 0 
13060 0 52.58 7.41884e+17 10655.8 1314.24 604.871 780.891 247.532 -1.45418 4.32984e+17 4.63602e+14 0 1.52303e+17 1.30917e+17 0 2.52159e+16 0 0 0 
17156 0 68.71 9.69472e+17 8377.76 1308.72 622.863 520.031 245.683 -2.75623 5.75551e+17 6.24854e+14 0 1.98946e+17 1.62442e+17 0 3.19079e+16 0 0 0 
4740 0 74.5343 1.05165e+18 16540.3 1709.57 648.442 1886.43 47.2631 -10.3419 6.04375e+17 6.04698e+14 0 2.16381e+17 1.9955e+17 0 3.07388e+16 0 0 0 
8836 0 106.807 1.50701e+18 12290.7 1789.69 682.306 1164.92 54.6662 6.56582 8.56937e+17 8.06264e+14 0 3.17607e+17 2.82092e+17 0 4.95651e+16 0 0 0 
12932 0 67.8886 9.57882e+17 10955.8 1442.59 652.95 800.339 76.674 -3.30853 5.46445e+17 1.47143e+15 0 2.02937e+17 1.74475e+17 0 3.25529e+16 0 0 0 
17028 0 99.15 1.39897e+18 8004.68 1456.79 641.703 479.343 96.9753 2.97554 7.94553e+17 1.04814e+15 0 3.0503e+17 2.52582e+17 0 4.57555e+16 0 0 0 
5764 0 65.1086 9.18657e+17 7556.51 1280.5 634.56 332.065 123.542 -3.62119 5.20342e+17 7.25637e+14 0 1.96265e+17 1.69396e+17 0 3.1928e+16 0 0 0 
9860 0 91.7643 1.29476e+18 5442.43 1258.62 617.379 138.723 135.497 -3.72968 7.50148e+17 7.65951e+14 0 2.76407e+17 2.2394e+17 0 4.34979e+16 0 0 0 
13956 0 61.9329 8.73849e+17 7729.86 1278.76 614.279 363.693 155.135 -3.17075 5.06575e+17 7.05481e+14 0 1.81389e+17 1.56133e+17 0 2.90456e+16 0 0 0 
18052 0 85.5643 1.20728e+18 5784.1 1217.63 604.602 189.538 167.668 -3.02383 7.06872e+17 1.00783e+15 0 2.5105e+17 2.07976e+17 0 4.03737e+16 0 0 0 
84 1 33.76 1.19085e+17 17609.5 770.147 319.332 5466.28 241.162 -3.87637 9.30277e+16 2.01566e+13 0 1.06024e+16 1.02698e+16 0 5.16513e+15 0 0 0 
212 1 28.45 1.00355e+17 12367.3 574.265 240.899 6274.54 170.406 -3.68199 8.4189e+16 1.51174e+13 0 5.74463e+15 5.96635e+15 0 4.43949e+15 0 0 0 
92 1 25.9857 9.16621e+16 8272.47 464.368 212.27 6736.08 123.714 -1.48361 8.02938e+16 0 0 3.59291e+15 3.58787e+15 0 4.18753e+15 0 0 0 
220 1 24.5314 8.65323e+16 5405.45 310.578 178.421 7019.89 84.685 -0.0257605 7.83688e+16 5.03915e+12 0 2.09629e+15 2.34824e+15 0 3.71385e+15 0 0 0 
588 1 37.12 2.61874e+17 21279.4 1096.66 478.226 2710.27 276.452 0.787289 1.68408e+17 1.10861e+14 0 4.31351e+16 4.03938e+16 0 9.82634e+15 0 0 0 
1612 1 28.7686 2.02957e+17 22100.1 1036.07 457.678 3140.11 313.564 4.88094 1.33578e+17 8.06264e+13 0 3.13435e+16 2.98922e+16 0 8.06264e+15 0 0 0 
2124 1 34.2371 2.41536e+17 20171.4 1266.36 507.185 2589.02 390.185 1.29078 1.54218e+17 1.10861e+14 0 4.03837e+16 3.73401e+16 0 9.48368e+15 0 0 0 
716 1 24.2571 1.71129e+17 22355.3 993.141 391.618 3979.35 298.115 1.55974 1.19569e+17 1.2094e+14 0 2.33816e+16 2.13156e+16 0 6.74238e+15 0 0 0 
1228 1 27.4129 1.93392e+17 21843.6 1115.66 440.389 3726.88 355.359 2.34373 1.32953e+17 1.91488e+14 0 2.77556e+16 2.4843e+16 0 7.64943e+15 0 0 0 
1740 1 19.8114 1.39766e+17 21357 973.56 390.111 4562.74 287.413 -4.01645 1.01972e+17 1.00783e+13 0 1.63369e+16 1.53492e+16 0 6.09737e+15 0 0 0 
2252 1 20.9071 1.47496e+17 21462.3 1018.72 396.846 4307.11 345.515 4.59634 1.0552e+17 5.03915e+13 0 1.81611e+16 1.75161e+16 0 6.24854e+15 0 0 0 
148 1 35.2357 1.24291e+17 17368.2 931.441 345.666 5344.71 318.148 2.33644 9.57791e+16 2.01566e+13 0 1.1968e+16 1.13734e+16 0 5.15001e+15 0 0 0 
276 1 28.9871 1.02249e+17 11976.5 708.427 262.618 6260.93 212.869 -0.190402 8.48643e+16 4.03132e+13 0 6.46019e+15 6.30397e+15 0 4.58059e+15 0 0 0 
156 1 26.0143 9.17629e+16 8068.08 473.444 209.421 6736.45 145.654 -2.60511 8.00569e+16 5.03915e+12 0 3.81464e+15 3.72393e+15 0 4.16234e+15 0 0 0 
284 1 24.6743 8.70362e+16 5609.56 340.517 182.608 6989.94 106.154 0.00783283 7.81874e+16 0 0 2.41879e+15 2.40871e+15 0 4.02124e+15 0 0 0 
780 1 29.4171 2.07532e+17 20783.4 1237.1 488.386 3398.98 429.34 2.12659 1.39383e+17 1.61253e+14 0 3.1918e+16 2.80177e+16 0 8.05256e+15 0 0 0 
1804 1 22.5857 1.59338e+17 20726.3 1070.65 425.618 4228.54 390.67 -3.71678 1.13461e+17 4.03132e+13 0 2.04892e+16 1.88565e+16 0 6.49042e+15 0 0 0 
5196 1 24.3186 3.43126e+17 19454.8 1197.36 507.34 2192.03 296.147 5.57497 2.15958e+17 3.22505e+14 0 5.99659e+16 5.37576e+16 0 1.31219e+16 0 0 0 
9292 1 28.1 3.9648e+17 16723.4 1267.9 568.063 1724.48 345.246 3.19403 2.40408e+17 2.01566e+14 0 7.45592e+16 6.75649e+16 0 1.37468e+16 0 0 0 
13388 1 20.9871 2.9612e+17 19658.9 1149.24 568.248 2380 340.385 -5.71912 1.85017e+17 2.41879e+14 0 5.36972e+16 4.59772e+16 0 1.11869e+16 0 0 0 
17484 1 23.8857 3.37018e+17 18569.9 1271.87 531.819 2142.6 364.405 5.87235 2.09044e+17 3.62819e+14 0 5.99659e+16 5.535e+16 0 1.22955e+16 0 0 0 
5828 1 20.34 2.8699e+17 18934.6 1143.84 486.816 1923.78 223.441 -0.733889 1.72903e+17 2.82192e+14 0 5.44833e+16 4.83557e+16 0 1.09652e+16 0 0 0 
9924 1 24.5657 3.46613e+17 17528.5 1126.75 552.858 1741 235.482 -5.858 2.10354e+17 2.41879e+14 0 6.48639e+16 5.99255e+16 0 1.12272e+16 0 0 0 
14020 1 18.7986 2.65241e+17 19451.3 1036.4 508.183 2041.84 254.344 0.0910961 1.66151e+17 1.41096e+14 0 4.48283e+16 4.30746e+16 0 1.10458e+16 0 0 0 
18116 1 22.28 3.14362e+17 18283.5 1152.34 542.788 1880.29 265.775 3.63017 1.92314e+17 1.2094e+14 0 5.78494e+16 5.27901e+16 0 1.12877e+16 0 0 0 
6340 1 29.0357 4.09683e+17 14936.5 1350.55 551.566 1301.61 256.909 -2.42076 2.42524e+17 2.21723e+14 0 8.00418e+16 7.20397e+16 0 1.48554e+16 0 0 0 
10436 1 35.8614 5.05991e+17 13312.4 1282.39 588.285 1096.35 282.954 -0.724451 2.98761e+17 3.62819e+14 0 1.02335e+17 8.74393e+16 0 1.70928e+16 0 0 0 
14532 1 26.1843 3.6945e+17 16258.7 1223.99 555.948 1552.28 292.809 -1.88398 2.21219e+17 1.2094e+14 0 7.16365e+16 6.36344e+16 0 1.28397e+16 0 0 0 
18628 1 31.8186 4.48948e+17 14016 1284.47 557.833 1216.37 318.178 8.03698 2.67478e+17 3.82975e+14 0 8.65726e+16 7.85502e+16 0 1.5964e+16 0 0 0 
5892 1 45.6429 6.44003e+17 10449.3 1245.4 588.515 738.6 293.658 -2.12417 3.79791e+17 2.01566e+14 0 1.29264e+17 1.10418e+17 0 2.4329e+16 0 0 0 
9988 1 59.1557 8.34664e+17 8645.07 1309.51 611.294 558.1 294.483 2.31569 4.95409e+17 6.65168e+14 0 1.7377e+17 1.36662e+17 0 2.81588e+16 0 0 0 
14084 1 39.2014 5.53117e+17 12002.4 1287.62 608.06 965.286 332.9 4.03638 3.29278e+17 3.62819e+14 0 1.09007e+17 9.37483e+16 0 2.0721e+16 0 0 0 
18180 1 48.6071 6.85828e+17 9677.99 1248.91 594.788 706.492 357.51 -0.953156 4.0938e+17 5.84541e+14 0 1.39806e+17 1.13038e+17 0 2.30188e+16 0 0 0 
4748 1 33.3257 4.70213e+17 14706 1326.44 609.031 1426.36 383.371 0.834608 2.84913e+17 4.23288e+14 0 8.9979e+16 7.81068e+16 0 1.67904e+16 0 0 0 
8844 1 39.9857 5.64183e+17 12958.2 1337.41 587.063 1224.77 391.637 -0.290742 3.39901e+17 3.42662e+14 0 1.13764e+17 9.1128e+16 0 1.9048e+16 0 0 0 
12940 1 27.1143 3.82572e+17 16436.5 1316.9 579.433 1803.9 403.485 6.50883 2.36457e+17 3.02349e+14 0 7.05481e+16 6.13768e+16 0 1.38879e+16 0 0 0 
17036 1 31.2843 4.41409e+17 14675.7 1424.74 582.106 1561.83 441.644 -2.60548 2.69695e+17 2.21723e+14 0 8.5343e+16 6.92782e+16 0 1.68711e+16 0 0 0 
5772 1 21.7014 3.06199e+17 17904 1358.22 564.923 2146.88 443.754 3.6317 1.89492e+17 2.01566e+14 0 5.57733e+16 4.91821e+16 0 1.15497e+16 0 0 0 
9868 1 24.1057 3.40122e+17 16674.3 1385.7 590.443 2005.94 473.489 5.00292 2.10657e+17 4.03132e+14 0 6.42391e+16 5.34956e+16 0 1.1328e+16 0 0 0 
13964 1 17.9657 2.53489e+17 19460.5 1231.25 540.474 2517.79 443.999 -9.33656 1.63147e+17 1.41096e+14 0 4.43042e+16 3.73502e+16 0 8.5464e+15 0 0 0 
18060 1 19.2057 2.70985e+17 18701 1382.3 549.47 2493.19 472.421 11.9564 1.73548e+17 4.03132e+14 0 4.6723e+16 3.99504e+16 0 1.03605e+16 0 0 0 
73 1 24.2971 8.57058e+16 6076.36 198.484 155.79 7015.47 11.6251 1.19326 7.78044e+16 0 0 1.72339e+15 2.31297e+15 0 3.86503e+15 0 0 0 
137 1 25.4157 8.96515e+16 8804.86 252.211 175.57 6767.4 24.709 0.882022 7.90995e+16 1.00783e+13 0 2.95294e+15 3.64834e+15 0 3.94061e+15 0 0 0 
201 1 23.8814 8.42394e+16 5028.74 171.328 155.267 7103.42 15.2051 1.59831 7.70284e+16 5.03915e+12 0 1.416e+15 1.92999e+15 0 3.85999e+15 0 0 0 
265 1 25.0429 8.83363e+16 7682.72 228.773 165.872 6868.69 28.705 0.243339 7.87518e+16 5.03915e+12 0 2.5095e+15 3.13939e+15 0 3.93054e+15 0 0 0 
81 1 23.6271 8.33425e+16 4379.7 183.955 151.233 7151.37 21.2719 -0.300593 7.659e+16 1.00783e+13 0 1.37065e+15 1.72843e+15 0 3.6433e+15 0 0 0 
145 1 24.6029 8.67842e+16 6074.41 228.417 157.842 7008.63 29.6513 -1.63227 7.84444e+16 5.03915e+12 0 1.96023e+15 2.43895e+15 0 3.93557e+15 0 0 0 
209 1 23.4314 8.26521e+16 3549.81 171.43 146.017 7219.71 14.8827 -1.98487 7.63179e+16 0 0 1.0935e+15 1.43112e+15 0 3.8096e+15 0 0 0 
273 1 23.7629 8.38212e+16 4675.62 205.404 154.303 7123.3 29.1401 -3.53182 7.69226e+16 0 0 1.36561e+15 1.80905e+15 0 3.72393e+15 0 0 0 
89 1 23.15 8.16594e+16 2898.09 177.012 145.192 7268.84 15.7274 -2.01171 7.61466e+16 0 0 8.06264e+14 1.15396e+15 0 3.5526e+15 0 0 0 
153 1 23.4429 8.26924e+16 3588.85 190.766 148.361 7212.65 23.3802 0.81649 7.61617e+16 5.03915e+12 0 1.02799e+15 1.46135e+15 0 4.03636e+15 0 0 0 
217 1 22.8971 8.07675e+16 2154.66 158.546 146.281 7322.86 14.3371 2.12863 7.56678e+16 0 0 5.84541e+14 9.02008e+14 0 3.61307e+15 0 0 0 
281 1 23.29 8.21532e+16 2618.23 171.26 148.833 7287.36 21.0458 0.521995 7.63582e+16 0 0 8.46577e+14 1.0935e+15 0 3.85495e+15 0 0 0 
74 1 27.64 9.74974e+16 12885.9 344.358 204.469 6337.69 43.6467 1.18412 8.24808e+16 2.01566e+13 0 4.87286e+15 5.80006e+15 0 4.32359e+15 0 0 0 
138 1 31.1886 1.10015e+17 17551.1 508.418 244.273 5711.36 78.9458 1.98351 8.80188e+16 6.04698e+13 0 8.41538e+15 8.81851e+15 0 4.70153e+15 0 0 0 
202 1 26.3914 9.30932e+16 10735.4 334.274 191.422 6565 48.1328 -1.99176 8.04702e+16 1.00783e+13 0 3.95069e+15 4.56043e+15 0 4.10187e+15 0 0 0 
266 1 28.7029 1.01247e+17 14396 455.814 233.684 6133.8 82.283 -0.402384 8.40933e+16 1.51174e+13 0 6.2435e+15 6.57105e+15 0 4.32359e+15 0 0 0 
82 1 25.4429 8.97472e+16 8542.89 297.923 180.005 6778.57 46.807 -2.63948 7.94724e+16 5.03915e+12 0 2.8572e+15 3.42662e+15 0 3.98597e+15 0 0 0 
146 1 26.9357 9.50131e+16 11339.3 354.413 196.26 6488.05 73.8992 -0.95459 8.14729e+16 5.03915e+12 0 4.31855e+15 4.96356e+15 0 4.25304e+15 0 0 0 
210 1 24.8314 8.75905e+16 6492.6 244.086 167.768 6964.24 44.6064 -0.144702 7.87921e+16 2.01566e+13 0 2.10132e+15 2.59516e+15 0 4.08171e+15 0 0 0 
274 1 25.1343 8.86588e+16 7985.52 312.845 182.733 6819.69 60.8774 -1.93969 7.84343e+16 1.00783e+13 0 3.00837e+15 3.1797e+15 0 4.02628e+15 0 0 0 
90 1 23.9843 8.46023e+16 4399.64 222.679 155.011 7140.02 32.0212 -0.093237 7.75273e+16 5.03915e+12 0 1.40088e+15 1.9048e+15 0 3.76424e+15 0 0 0 
154 1 24.3129 8.57613e+16 5521.15 257.826 164.935 7036.2 48.4447 -2.84048 7.7749e+16 0 0 1.80905e+15 2.35328e+15 0 3.84991e+15 0 0 0 
218 1 23.36 8.24001e+16 3324.4 181.68 150.967 7229.75 31.4538 -2.57899 7.65799e+16 0 0 9.37282e+14 1.37065e+15 0 3.51229e+15 0 0 0 
282 1 23.7529 8.37859e+16 3963.39 222.739 156.943 7168.2 40.9633 0.859679 7.70385e+16 5.03915e+12 0 1.23963e+15 1.59741e+15 0 3.90534e+15 0 0 0 
91 1 25.0071 8.82103e+16 6785.43 336.333 181.374 6912.96 71.0469 -1.50464 7.88778e+16 2.51957e+13 0 2.40871e+15 2.73122e+15 0 4.16738e+15 0 0 0 
219 1 23.9343 8.44259e+16 4462.64 261.112 161.042 7121.25 52.584 0.580557 7.71594e+16 0 0 1.65284e+15 1.70323e+15 0 3.91038e+15 0 0 0 
75 1 37.4457 1.32086e+17 21532.5 717.8 315.277 4866.77 132.077 -0.00754899 9.86363e+16 6.55089e+13 0 1.37418e+16 1.43112e+16 0 5.33142e+15 0 0 0 
203 1 32.5857 1.14943e+17 18128 585.414 285.729 5557.31 131.899 -1.68665 9.02814e+16 4.53523e+13 0 9.46856e+15 9.94224e+15 0 5.20544e+15 0 0 0 
83 1 28.66 1.01095e+17 14259 450.961 225.94 6128.16 118.336 -2.63616 8.36499e+16 2.01566e+13 0 6.25862e+15 6.60128e+15 0 4.56547e+15 0 0 0 
211 1 26.5171 9.35367e+16 9719.72 386.661 197.284 6628.91 91.9131 -2.04669 8.11605e+16 0 0 3.71889e+15 4.63098e+15 0 4.02628e+15 0 0 0 
1731 1 17.7986 1.25565e+17 22412.3 725.124 319.481 4646.15 92.97 -15.0377 9.16319e+16 8.06264e+13 0 1.43918e+16 1.3777e+16 0 5.68416e+15 0 0 0 
2243 1 21 1.48151e+17 23558.4 838.647 359.298 3964.9 117.958 3.7163 1.02325e+17 8.06264e+13 0 2.04489e+16 1.94813e+16 0 5.81518e+15 0 0 0 
155 1 25.5471 9.01151e+16 7858.22 392.028 189.54 6809.03 96.2369 3.4405 7.97848e+16 0 0 2.98821e+15 3.23009e+15 0 4.11194e+15 0 0 0 
283 1 24.2314 8.5474e+16 4843.79 259.705 169.806 7085.31 67.5747 -3.31345 7.74971e+16 1.00783e+13 0 1.64276e+15 2.29785e+15 0 4.02628e+15 0 0 0 
267 1 38.0871 1.34349e+17 21011.5 811.813 333.08 4804.38 215.549 2.32581 9.90243e+16 4.03132e+13 0 1.4674e+16 1.48756e+16 0 5.73455e+15 0 0 0 
147 1 31.7543 1.1201e+17 16299.6 607.238 266.459 5790.95 173.042 -0.19225 9.00143e+16 2.01566e+13 0 8.31459e+15 8.6371e+15 0 5.02403e+15 0 0 0 
275 1 27.2929 9.62729e+16 11356 481.808 218.676 6435.25 130.924 1.03926 8.2128e+16 3.02349e+13 0 4.97364e+15 4.89301e+15 0 4.248e+15 0 0 0 
651 1 24.6314 1.7377e+17 23234.2 891.149 377.224 3953.49 175.626 1.67038 1.21101e+17 4.03132e+13 0 2.26963e+16 2.31196e+16 0 6.81293e+15 0 0 0 
1163 1 29.88 2.10798e+17 22790 1038.13 425.982 3279.02 228.487 7.26694 1.39201e+17 1.51174e+14 0 3.22102e+16 3.12226e+16 0 8.01225e+15 0 0 0 
1675 1 20.7043 1.46065e+17 22741.5 875.627 362.777 4235.41 200.412 -0.577601 1.03675e+17 4.03132e+13 0 1.89069e+16 1.74355e+16 0 6.00666e+15 0 0 0 
2187 1 24.1343 1.70263e+17 22821.6 973.717 422.322 3617.24 255.17 3.65384 1.1461e+17 9.07047e+13 0 2.48833e+16 2.36134e+16 0 7.06489e+15 0 0 0 
1795 1 25.0757 1.76904e+17 23252.6 979.401 413.784 3283.43 152.966 -2.39065 1.16162e+17 1.2094e+14 0 2.71509e+16 2.59919e+16 0 7.4781e+15 0 0 0 
2307 1 32.1443 2.26772e+17 21420.4 1071.27 476.82 2568.85 203.245 2.65357 1.43354e+17 9.07047e+13 0 3.82068e+16 3.6302e+16 0 8.81851e+15 0 0 0 
1292 2 30.9186 2.18125e+17 19752.4 1398.88 522.715 3423.49 481.552 0.875274 1.45742e+17 1.10861e+14 0 3.44275e+16 2.94992e+16 0 8.34483e+15 0 0 0 
2316 2 22.74 1.60426e+17 19581.6 1307.07 470.717 4266.62 438.083 -1.76593 1.12222e+17 9.07047e+13 0 2.2142e+16 1.94813e+16 0 6.49042e+15 0 0 0 
5252 2 182.477 2.57468e+18 7472.77 1581.56 690.54 531.165 62.5032 9.71005 1.49806e+18 1.55206e+15 0 5.38987e+17 4.60074e+17 0 7.60105e+16 0 0 0 
13444 2 162.546 2.29346e+18 5067.28 1334.85 643.683 190.642 118.285 -3.55877 1.35642e+18 1.5319e+15 0 4.81138e+17 3.84608e+17 0 6.9762e+16 0 0 0 
17540 2 343.879 4.85199e+18 2519.02 1111.48 593.197 17.7097 109.531 1.46574 3.04469e+18 4.03132e+15 0 9.6282e+17 6.9383e+17 0 1.46619e+17 0 0 0 
6276 2 140.324 1.97992e+18 4055.08 1214.1 620.143 66.8224 147.33 4.64655 1.1716e+18 1.22955e+15 0 4.16899e+17 3.2305e+17 0 6.71416e+16 0 0 0 
10372 2 242.533 3.42205e+18 2503.54 1062 583.146 1.80899 127.131 1.57786 2.12835e+18 2.4591e+15 0 6.87884e+17 4.90712e+17 0 1.12635e+17 0 0 0 
14468 2 123.617 1.74419e+18 4271.5 1173.75 609.005 89.3158 164.362 2.5304 1.03625e+18 1.81409e+15 0 3.66951e+17 2.81829e+17 0 5.73455e+16 0 0 0 
18564 2 200.311 2.82632e+18 2811.13 1052.45 579.683 25.6381 122.385 -3.01365 1.73917e+18 1.33034e+15 0 5.8311e+17 4.11638e+17 0 9.10675e+16 0 0 0 
5260 2 47.8614 6.75306e+17 11167.2 1379.41 615.79 1029.8 429.91 4.95382 4.07687e+17 3.82975e+14 0 1.33679e+17 1.09853e+17 0 2.37042e+16 0 0 0 
9356 2 56.2114 7.93122e+17 9426.47 1393.64 624.3 873.682 452.318 1.22627 4.87608e+17 6.45011e+14 0 1.57282e+17 1.21806e+17 0 2.57803e+16 0 0 0 
13452 2 34.87 4.92002e+17 13729.7 1424.89 605.444 1483.37 468.302 -1.26662 3.03437e+17 2.82192e+14 0 9.27405e+16 7.72804e+16 0 1.82619e+16 0 0 0 
17548 2 38.1 5.37576e+17 12448.5 1465.79 609.817 1404.77 518.395 -9.92189 3.27706e+17 4.23288e+14 0 1.06931e+17 8.15334e+16 0 2.0983e+16 0 0 0 
6284 2 25.7214 3.62919e+17 16146.8 1421.56 572.299 1987.94 505.182 -8.9382 2.24202e+17 2.21723e+14 0 6.85324e+16 5.65191e+16 0 1.34444e+16 0 0 0 
10380 2 26.9414 3.80133e+17 14562.3 1505.3 610.174 1830.79 562.107 2.99939 2.33474e+17 3.22505e+14 0 7.14551e+16 6.08528e+16 0 1.4029e+16 0 0 0 
14476 2 20.5857 2.90456e+17 17846.2 1511.88 561.012 2454.87 511.802 1.45337 1.86307e+17 1.00783e+14 0 5.08551e+16 4.43243e+16 0 8.8689e+15 0 0 0 
18572 2 20.8571 2.94286e+17 17389.7 1446.05 598.735 2495.21 551.692 1.64899 1.90359e+17 2.62036e+14 0 4.9948e+16 4.30142e+16 0 1.07032e+16 0 0 0 
5380 2 113.019 1.59465e+18 5820.17 1270.81 623.203 281.283 180.61 0.565338 9.45485e+17 1.29002e+15 0 3.29601e+17 2.66309e+17 0 5.19637e+16 0 0 0 
9476 2 178.443 2.51776e+18 3654.5 1146.02 594.466 118.011 147.016 -0.130235 1.55226e+18 2.35832e+15 0 5.03854e+17 3.8233e+17 0 7.69579e+16 0 0 0 
13572 2 98.5486 1.39048e+18 6045.09 1278.73 616.917 300.649 232.508 -3.3437 8.22449e+17 8.66733e+14 0 2.88804e+17 2.31277e+17 0 4.70858e+16 0 0 0 
17668 2 153.276 2.16266e+18 4054.67 1138.24 606.612 141.408 197.715 4.36087 1.32647e+18 1.18924e+15 0 4.37257e+17 3.33209e+17 0 6.45414e+16 0 0 0 
6404 2 80.7686 1.13961e+18 6582.43 1272.33 608.922 362.118 295.275 1.82353 6.85606e+17 8.8689e+14 0 2.35127e+17 1.82135e+17 0 3.58586e+16 0 0 0 
10500 2 120.28 1.6971e+18 4622.25 1189.61 604.81 199.339 266.07 -0.887955 1.02514e+18 1.18924e+15 0 3.50745e+17 2.68264e+17 0 5.17621e+16 0 0 0 
14596 2 63.8586 9.0102e+17 8224.07 1239.93 605.059 577.085 361.94 -1.20299 5.44329e+17 8.8689e+14 0 1.78829e+17 1.4674e+17 0 3.02349e+16 0 0 0 
18692 2 84.5871 1.19349e+18 6098.58 1236.03 606.124 382.906 347.819 0.111099 7.29286e+17 1.04814e+15 0 2.4204e+17 1.81329e+17 0 3.97891e+16 0 0 0 
8 3 9 1.58733e+16 8116.93 3387.94 917.853 4827.13 -184.389 -8.40528 9.56934e+15 1.25979e+13 0 3.06884e+15 2.62792e+15 0 5.94619e+14 0 0 0 
7 3 7.90714 1.39458e+16 8814.82 3870.06 1004.35 4373.43 -328.418 2.55223 8.05004e+15 7.55872e+12 0 2.96302e+15 2.42131e+15 0 5.03915e+14 0 0 0 
80 3 24.8471 8.76459e+16 5002.27 1456.51 449.563 6465.85 25.914 -0.689409 6.57508e+16 4.53523e+13 0 9.86161e+15 8.79835e+15 0 3.18978e+15 0 0 0 
144 3 24.3143 8.57663e+16 4746.84 1407.88 437.385 6542.67 13.6087 -9.25433 6.55946e+16 5.54306e+13 0 8.93945e+15 7.88123e+15 0 3.2956e+15 0 0 0 
208 3 28.35 1.00002e+17 4737.9 1326.93 404.575 6599.03 119.464 -0.098875 7.85351e+16 3.02349e+13 0 9.73059e+15 8.06264e+15 0 3.6433e+15 0 0 0 
272 3 27.5986 9.73513e+16 4341.02 1210.18 398.018 6672.16 105.496 1.70046 7.66404e+16 4.53523e+13 0 8.8437e+15 8.00217e+15 0 3.81967e+15 0 0 0 
88 3 27.32 9.63687e+16 3999.37 1045.99 331.277 6840.52 141.763 -1.7472 8.03391e+16 3.5274e+13 0 6.61136e+15 5.44732e+15 0 3.93557e+15 0 0 0 
152 3 26.7429 9.43329e+16 3682.56 989.404 318.798 6877.99 128.98 -2.77969 7.90239e+16 2.01566e+13 0 6.11249e+15 5.42212e+15 0 3.75417e+15 0 0 0 
216 3 25.7029 9.06644e+16 3352.55 820.191 281.919 7011.64 131.042 0.13915 7.86913e+16 2.01566e+13 0 4.35886e+15 3.5526e+15 0 4.0414e+15 0 0 0 
280 3 25.9971 9.17024e+16 3114.73 805.871 281.579 7026.21 129.271 -1.40136 7.95379e+16 3.5274e+13 0 4.45965e+15 3.75417e+15 0 3.91542e+15 0 0 0 
96 3 24.83 8.75854e+16 2806.58 632.197 238.805 7122.93 116.518 -0.0153179 7.78347e+16 2.01566e+13 0 3.01341e+15 2.55485e+15 0 4.16234e+15 0 0 0 
160 3 25.2 8.88906e+16 2659.86 625.541 242.561 7128.34 118.907 2.86422 7.9422e+16 1.51174e+13 0 2.95798e+15 2.575e+15 0 3.92046e+15 0 0 0 
224 3 24.2157 8.54186e+16 2407.57 543.297 210.552 7202.18 110.025 -0.33042 7.76482e+16 1.00783e+13 0 2.13156e+15 1.71835e+15 0 3.91038e+15 0 0 0 
288 3 24.1786 8.52876e+16 2140.8 490.42 207.126 7228.48 105.571 -1.51992 7.79203e+16 5.03915e+12 0 1.89976e+15 1.65788e+15 0 3.80456e+15 0 0 0 
79 3 27.6257 9.7447e+16 5715.97 1720.42 528.936 6267.49 44.3813 4.69956 6.96763e+16 3.5274e+13 0 1.26432e+16 1.13935e+16 0 3.69873e+15 0 0 0 
143 3 26.4414 9.32696e+16 5388.04 1637.83 476.481 6374.28 29.831 1.96988 6.82603e+16 1.51174e+13 0 1.11567e+16 1.0295e+16 0 3.54252e+15 0 0 0 
207 3 30.1171 1.06235e+17 5481.23 1514.39 444.864 6476.19 153.426 -7.74386 8.22943e+16 4.03132e+13 0 1.0295e+16 9.64997e+15 0 3.95573e+15 0 0 0 
271 3 29.2 1.03e+17 4978.65 1380.21 441.647 6552.44 127.596 -0.903466 8.01527e+16 7.55872e+13 0 1.01488e+16 8.95457e+15 0 3.6685e+15 0 0 0 
87 3 28.1229 9.92007e+16 4855.01 1140.34 352.715 6752.84 176.331 1.65129 8.24707e+16 0 0 7.05985e+15 5.85549e+15 0 3.81464e+15 0 0 0 
151 3 27.3543 9.64896e+16 4320.45 1069.93 342.252 6807.93 154.635 1.84806 8.01325e+16 2.01566e+13 0 6.69703e+15 5.75975e+15 0 3.88014e+15 0 0 0 
215 3 26.3957 9.31083e+16 4279.35 832.9 282.817 6920.66 162.322 1.34995 8.03039e+16 1.00783e+13 0 4.63602e+15 3.97085e+15 0 4.18753e+15 0 0 0 
279 3 26.1257 9.21559e+16 3700.15 828.129 265.568 6979.83 149.806 1.32345 8.02787e+16 3.02349e+13 0 4.31855e+15 3.73401e+15 0 3.79448e+15 0 0 0 
95 3 25.1457 8.86991e+16 3675.47 621.618 223.514 7062.95 150.456 -0.423198 7.90743e+16 1.51174e+13 0 2.98318e+15 2.78161e+15 0 3.84487e+15 0 0 0 
159 3 24.9586 8.8039e+16 3209.92 616.482 246.417 7093.87 137.055 4.39868 7.86057e+16 3.5274e+13 0 2.91767e+15 2.64051e+15 0 3.83983e+15 0 0 0 
223 3 24.2357 8.54891e+16 2972.84 486.842 200.15 7167.56 119.382 4.55537 7.76281e+16 1.00783e+13 0 2.12652e+15 1.74858e+15 0 3.97589e+15 0 0 0 
287 3 24.2886 8.56756e+16 2687.24 528.29 204.398 7179.55 117.011 2.3875 7.79052e+16 1.51174e+13 0 2.12652e+15 1.86952e+15 0 3.7592e+15 0 0 0 
142 3 30.2214 1.06603e+17 6330.67 1833.6 543.539 6132.84 55.8708 1.53527 7.54411e+16 4.53523e+13 0 1.45178e+16 1.29708e+16 0 3.62819e+15 0 0 0 
270 3 31.2557 1.10252e+17 6271.81 1612.72 454.525 6377.57 187.98 8.24514 8.4567e+16 2.01566e+13 0 1.16404e+16 9.57438e+15 0 4.44957e+15 0 0 0 
150 3 28.5186 1.00597e+17 6011.73 1175.24 368.743 6622.88 213.35 -1.23321 8.26874e+16 4.53523e+13 0 7.50329e+15 6.21831e+15 0 4.14218e+15 0 0 0 
278 3 26.8857 9.48368e+16 5245.16 871.451 290.097 6832.12 197.982 1.00802 8.1226e+16 5.03915e+12 0 5.03915e+15 4.33871e+15 0 4.22785e+15 0 0 0 
158 3 25.33 8.93491e+16 4296.72 621.615 228.312 7007.7 152.703 3.49112 7.89433e+16 1.00783e+13 0 3.45686e+15 3.04868e+15 0 3.89022e+15 0 0 0 
286 3 24.1529 8.51969e+16 3513.86 486.019 208.377 7123.15 130.633 2.68839 7.72703e+16 2.01566e+13 0 2.19203e+15 1.97031e+15 0 3.74409e+15 0 0 0 
5 3 162.801 2.78423e+18 2994.69 1021.94 572.284 115.375 186.405 -0.0343997 1.79437e+18 2.1011e+15 0 5.27866e+17 3.71675e+17 0 8.82219e+16 0 0 0 
5 3 2.06429 1.46501e+16 9056.42 3108.44 961.919 2609.73 -693.432 -54.5537 8.04998e+15 1.01385e+13 0 3.23418e+15 2.61574e+15 0 7.40111e+14 0 0 0 
149 3 31.7571 1.1202e+17 10464.6 1224.5 376.674 6149.39 300.882 1.40049 8.91929e+16 1.51174e+13 0 9.88177e+15 8.22893e+15 0 4.70153e+15 0 0 0 
277 3 27.7257 9.77998e+16 8406.44 846.763 298.148 6542.51 234.547 -2.61266 8.24304e+16 1.51174e+13 0 6.04194e+15 5.30622e+15 0 4.00612e+15 0 0 0 
157 3 25.9771 9.16319e+16 6336.46 657.139 237.006 6840.34 173.378 3.97182 8.03391e+16 1.51174e+13 0 4.06659e+15 3.39135e+15 0 3.81967e+15 0 0 0 
285 3 24.7329 8.72428e+16 4627.33 424.503 200.178 7046.59 124.759 -2.07301 7.852e+16 1.51174e+13 0 2.49438e+15 2.27769e+15 0 3.93557e+15 0 0 0 