ITEM: TIMESTEP
15000
ITEM: NUMBER OF CELLS
240
ITEM: BOX BOUNDS oo ao pp
-10 10
0 10
-0.5 0.5
ITEM: CELLS id proc f_avg_n f_avg_nrho f_avg_temp_tra f_avg_temp_rot f_avg_temp_vib f_avg_vel[1] f_avg_vel[2] f_avg_vel[3] f_avg_nrho_CO2 f_avg_nrho_O2 f_avg_nrho_C2 f_avg_nrho_CO f_avg_nrho_O f_avg_nrho_C f_avg_nrho_N2 f_avg_nrho_N f_avg_nrho_NO f_avg_nrho_CN 
65 0 24.655 8.69681e+16 6339.18 179.114 155.677 6996.23 9.47575 1.16297 7.88904e+16 0 0 1.7637e+15 2.32809e+15 0 3.98597e+15 0 0 0 
129 0 26.295 9.27531e+16 9838.09 248.915 181.871 6673.72 24.0299 2.58298 8.10245e+16 0 0 3.20994e+15 3.79196e+15 0 4.72672e+15 0 0 0 
193 0 24.605 8.67918e+16 6424.67 197.132 154.953 6984.28 6.49657 -2.20836 7.82731e+16 0 0 1.74606e+15 2.69846e+15 0 4.07415e+15 0 0 0 
257 0 25.8 9.1007e+16 9517.34 284.811 170.249 6698.44 10.3656 0.680413 7.9684e+16 1.7637e+13 0 3.47449e+15 3.6685e+15 0 4.16234e+15 0 0 0 
66 0 29.895 1.05452e+17 13590.7 367.363 206.752 6264.86 26.1248 5.55069 8.8238e+16 1.7637e+13 0 5.48511e+15 6.87844e+15 0 4.83254e+15 0 0 0 
130 0 34.045 1.2009e+17 18936.9 486.019 260.533 5504.63 43.1921 1.69257 9.36349e+16 0 0 9.912e+15 1.1129e+16 0 5.41456e+15 0 0 0 
194 0 28.79 1.01554e+17 14180.1 413.377 211.046 6192.77 24.8087 1.18648 8.49575e+16 3.5274e+13 0 5.27347e+15 6.56097e+15 0 4.72672e+15 0 0 0 
258 0 32.485 1.14588e+17 19299.7 552.298 266.501 5429.79 58.5605 -2.74036 8.96313e+16 1.7637e+13 0 9.40053e+15 1.07233e+16 0 4.81491e+15 0 0 0 
579 0 29.535 2.08364e+17 16036.1 584.829 242.61 5905.08 68.8462 -10.0164 1.70374e+17 0 0 1.38627e+16 1.46387e+16 0 9.48872e+15 0 0 0 
1091 0 32.74 2.30974e+17 18269.7 752.973 290.292 5508.66 64.2539 -3.53968 1.79721e+17 0 0 2.06706e+16 2.1235e+16 0 9.34762e+15 0 0 0 
1603 0 17.945 1.26599e+17 23740.5 713.326 327.758 3954.86 16.461 -5.48432 8.8044e+16 3.5274e+13 0 1.52031e+16 1.73901e+16 0 5.92604e+15 0 0 0 
2115 0 21.665 1.52842e+17 23054.7 1171.38 418.309 3279.33 32.6935 17.1551 9.97902e+16 7.05481e+13 0 2.30692e+16 2.34572e+16 0 6.45515e+15 0 0 0 
707 0 21.46 1.51396e+17 21522.1 725.373 310.077 4931.66 46.7581 -8.51233 1.13618e+17 3.5274e+13 0 1.49209e+16 1.57675e+16 0 7.05481e+15 0 0 0 
1219 0 24.645 1.73866e+17 23177 857.063 355.42 4205.56 93.0594 7.14065 1.21307e+17 0 0 2.20463e+16 2.39158e+16 0 6.59624e+15 0 0 0 
643 0 36.935 2.60569e+17 22089.8 1073.38 321.618 4625.09 51.7019 13.2041 1.91467e+17 7.05481e+13 0 2.96302e+16 3.08648e+16 0 8.53632e+15 0 0 0 
1667 0 28.22 1.99087e+17 21812.7 940.944 455.415 2548.93 81.3121 -7.28314 1.23635e+17 1.05822e+14 0 3.18877e+16 3.5521e+16 0 7.93666e+15 0 0 0 
2179 0 36.44 2.57077e+17 19017.1 1091.43 543.975 1879.73 94.4064 20.6614 1.56793e+17 7.05481e+13 0 4.38456e+16 4.71967e+16 0 9.17125e+15 0 0 0 
771 0 29.585 2.08716e+17 23338 939.744 398.016 3432.37 121.964 8.08183 1.3972e+17 7.05481e+13 0 2.81134e+16 3.25932e+16 0 8.21885e+15 0 0 0 
1283 0 38.7 2.73021e+17 21479 1078.6 485.05 2548.5 136.057 7.04869 1.70973e+17 1.7637e+14 0 4.64559e+16 4.5186e+16 0 1.02295e+16 0 0 0 
5251 0 28 3.95069e+17 18173.8 747.858 319.833 5362.48 49.8354 0.381829 2.89882e+17 7.05481e+13 0 3.77432e+16 4.97364e+16 0 1.7637e+16 0 0 0 
9347 0 30.42 4.29214e+17 20158.3 1289.97 405.097 4787.11 30.3491 25.1475 3.06461e+17 2.11644e+14 0 6.37049e+16 4.61384e+16 0 1.26987e+16 0 0 0 
13443 0 19.5 2.75137e+17 23010 1135.71 422.52 3507.8 29.3928 -22.1635 1.79051e+17 7.05481e+13 0 4.4798e+16 4.0424e+16 0 1.07939e+16 0 0 0 
17539 0 21.855 3.08366e+17 21923.2 1271.25 468.024 2917.52 71.7859 -10.5344 1.91609e+17 9.87673e+14 0 5.15706e+16 4.8396e+16 0 1.58028e+16 0 0 0 
4676 0 35.935 5.07029e+17 21164.5 1237.61 450.6 4286.62 58.4573 2.48854 3.38913e+17 2.82192e+14 0 7.01953e+16 7.35816e+16 0 2.40569e+16 0 0 0 
8772 0 42.39 5.98107e+17 21650.3 1413.22 465.872 3864.33 59.0885 9.76934 3.84134e+17 4.93837e+14 0 9.17125e+16 9.99666e+16 0 2.17994e+16 0 0 0 
12868 0 27.29 3.85051e+17 20698.4 1165.35 503.133 2519.41 82.7292 36.6293 2.33655e+17 2.11644e+14 0 6.8996e+16 6.54686e+16 0 1.67199e+16 0 0 0 
16964 0 33.04 4.66182e+17 19143.6 1368.64 532.064 2138.86 74.924 0.936932 2.75067e+17 2.82192e+14 0 8.90317e+16 8.91728e+16 0 1.26281e+16 0 0 0 
5188 0 45.74 6.45374e+17 21118.7 1553.94 559.48 3055.77 25.307 -16.4128 4.1186e+17 3.5274e+14 0 1.09914e+17 1.01378e+17 0 2.18699e+16 0 0 0 
9284 0 57.085 8.05447e+17 19202.1 1489.67 621.834 2450.23 49.2455 5.12744 4.78175e+17 2.11644e+14 0 1.54571e+17 1.44694e+17 0 2.77959e+16 0 0 0 
13380 0 39.77 5.61139e+17 17037.4 1356.13 598.917 1694.61 72.0516 -3.0913 3.31929e+17 4.93837e+14 0 1.08926e+17 9.64392e+16 0 2.33514e+16 0 0 0 
17476 0 50.32 7.09996e+17 13737.5 1493.68 624.343 1218.25 71.2493 -7.39073 3.97115e+17 3.5274e+14 0 1.45117e+17 1.39403e+17 0 2.80076e+16 0 0 0 
5700 0 24.55 3.46391e+17 16540.6 1338.81 536.327 1538.47 83.5218 -23.9499 2.01485e+17 7.05481e+13 0 6.94193e+16 6.39166e+16 0 1.14993e+16 0 0 0 
9796 0 30.415 4.29144e+17 14442.8 1304.06 589.631 1132.25 88.3057 0.0273458 2.52209e+17 2.11644e+14 0 8.12008e+16 8.13419e+16 0 1.41802e+16 0 0 0 
13892 0 24.485 3.45474e+17 16648.6 1144.55 523.629 1486.15 95.879 -3.61079 2.01979e+17 2.11644e+14 0 6.46926e+16 6.07419e+16 0 1.78487e+16 0 0 0 
17988 0 28.815 4.06569e+17 14065.6 1212.8 604.079 1092.48 125.583 5.48465 2.28858e+17 2.11644e+14 0 8.2894e+16 7.82378e+16 0 1.63672e+16 0 0 0 
6212 0 36.9 5.20645e+17 11837.7 1291.24 584.902 787.557 103.819 6.51602 2.98983e+17 4.23288e+14 0 1.07727e+17 9.30529e+16 0 2.04589e+16 0 0 0 
10308 0 48.505 6.84387e+17 8847.29 1295.02 676.599 459.644 109.928 -9.58455 3.90836e+17 4.93837e+14 0 1.4286e+17 1.28186e+17 0 2.2011e+16 0 0 0 
14404 0 37.33 5.26712e+17 12450.1 1184.31 604.341 888.367 147.847 -26.2984 3.05896e+17 3.5274e+14 0 1.01307e+17 9.74269e+16 0 2.17288e+16 0 0 0 
18500 0 46.8 6.6033e+17 10101.2 1245.25 581.823 615.424 147.615 4.70764 3.78702e+17 2.11644e+14 0 1.3383e+17 1.24729e+17 0 2.28576e+16 0 0 0 
4804 0 25.4 3.58384e+17 19460.4 1274.76 580.596 2143.07 146.205 1.08301 2.17147e+17 7.05481e+13 0 6.10241e+16 6.51864e+16 0 1.49562e+16 0 0 0 
8900 0 30.58 4.31472e+17 17656 1431.27 547.553 1742.54 163.006 -12.6429 2.56654e+17 1.41096e+14 0 8.39522e+16 7.45693e+16 0 1.61555e+16 0 0 0 
12996 0 22.955 3.23886e+17 19180.8 1285.44 555.627 2078.61 174.754 -12.4978 1.97887e+17 1.41096e+14 0 5.83433e+16 5.69323e+16 0 1.05822e+16 0 0 0 
17092 0 26.51 3.74046e+17 17432.8 1215 565.471 1724.81 182.961 6.82982 2.21733e+17 1.41096e+14 0 7.03364e+16 6.70912e+16 0 1.47445e+16 0 0 0 
5316 0 35.865 5.06041e+17 15486 1264.47 554.628 1355.08 171.629 -5.58564 3.0766e+17 2.11644e+14 0 9.49577e+16 8.70563e+16 0 1.61555e+16 0 0 0 
9412 0 44.935 6.34016e+17 13215.7 1193.14 560.696 1050.58 198.375 1.09873 3.73764e+17 1.41096e+14 0 1.20708e+17 1.15769e+17 0 2.36336e+16 0 0 0 
13508 0 33.47 4.72249e+17 15920.3 1168.95 562.652 1488.42 220.696 -16.4721 2.79864e+17 3.5274e+14 0 8.76207e+16 8.75502e+16 0 1.6861e+16 0 0 0 
17604 0 40.57 5.72427e+17 13257.1 1308.57 604.16 1121.91 231.985 3.33714 3.38842e+17 4.23288e+14 0 1.10549e+17 1.01942e+17 0 2.06706e+16 0 0 0 
4868 0 57.94 8.17511e+17 10239.4 1413.21 596.867 693.035 191.343 0.984698 4.72813e+17 4.23288e+14 0 1.75524e+17 1.39615e+17 0 2.91364e+16 0 0 0 
8964 0 79.04 1.11522e+18 7136.85 1250.15 620.943 375.318 202.277 4.05193 6.41705e+17 7.05481e+14 0 2.3429e+17 1.98028e+17 0 4.04946e+16 0 0 0 
13060 0 52.17 7.36099e+17 10256.5 1290.6 595.517 718.867 244.413 -3.38522 4.32671e+17 2.11644e+14 0 1.48222e+17 1.30091e+17 0 2.49035e+16 0 0 0 
17156 0 67.555 9.53175e+17 8693.49 1270.89 630.03 559.949 240.31 -15.0813 5.63256e+17 4.23288e+14 0 1.97887e+17 1.6085e+17 0 3.0759e+16 0 0 0 
4740 0 72.63 1.02478e+18 15999.5 1625.74 609.704 1750.25 55.9532 12.5908 5.89147e+17 3.5274e+14 0 2.1115e+17 1.96265e+17 0 2.78665e+16 0 0 0 
8836 0 108.62 1.53259e+18 12170.9 1784 665.903 1147.09 54.6968 3.22065 8.64284e+17 1.41096e+15 0 3.24592e+17 2.88965e+17 0 5.33343e+16 0 0 0 
12932 0 67.785 9.5642e+17 10566 1397.68 631.197 752.589 87.9412 -0.662659 5.43926e+17 7.05481e+14 0 1.93443e+17 1.85965e+17 0 3.23816e+16 0 0 0 
17028 0 99.595 1.40525e+18 8322.52 1456.6 625.647 510.569 98.4191 -3.66375 8.03895e+17 1.05822e+15 0 3.02157e+17 2.5235e+17 0 4.57857e+16 0 0 0 
5764 0 64.66 9.12328e+17 7941.6 1244.37 624.421 378.211 123.704 -0.545553 5.1232e+17 7.05481e+14 0 1.96053e+17 1.6988e+17 0 3.33692e+16 0 0 0 
9860 0 90.855 1.28193e+18 5210.22 1276.24 612.828 108.713 135.847 -7.88235 7.37439e+17 7.76029e+14 0 2.73797e+17 2.25754e+17 0 4.41631e+16 0 0 0 
13956 0 62.19 8.77477e+17 8158.1 1301.95 634.101 423.579 146.743 -1.57433 5.00397e+17 1.05822e+15 0 1.79051e+17 1.67834e+17 0 2.91364e+16 0 0 0 
18052 0 85.31 1.20369e+18 5651.55 1159.28 610.058 166.989 162.561 -1.01956 7.14864e+17 7.76029e+14 0 2.46989e+17 2.0205e+17 0 3.90131e+16 0 0 0 
84 1 33.705 1.18891e+17 17497.8 772.992 319.44 5479.35 238.641 0.370105 9.24532e+16 1.7637e+13 0 1.0935e+16 1.03e+16 0 5.18528e+15 0 0 0 
212 1 28.345 9.99843e+16 11914.6 596.681 238.762 6317.34 167.982 3.58311 8.43755e+16 0 0 5.83785e+15 5.89076e+15 0 3.88014e+15 0 0 0 
92 1 25.855 9.1201e+16 8116.74 471.58 212.363 6734.23 122.136 0.358573 7.92784e+16 0 0 3.98597e+15 3.73905e+15 0 4.19761e+15 0 0 0 
220 1 24.115 8.50633e+16 5357 288.411 183.68 7022.18 81.1369 -1.11316 7.69856e+16 0 0 2.08117e+15 2.06353e+15 0 3.93306e+15 0 0 0 
588 1 36.87 2.60111e+17 21247.7 1073.6 471.825 2703.8 285.666 10.9555 1.66176e+17 1.05822e+14 0 4.27521e+16 4.03535e+16 0 1.07233e+16 0 0 0 
1612 1 28.835 2.03425e+17 22026.9 1014.55 454.382 3122.17 306.599 -0.147923 1.33548e+17 7.05481e+13 0 3.17819e+16 2.9348e+16 0 8.67741e+15 0 0 0 
2124 1 33.99 2.39793e+17 20130.2 1218.92 510.958 2543.08 390.084 -5.68612 1.53266e+17 3.5274e+13 0 4.04593e+16 3.66497e+16 0 9.38289e+15 0 0 0 
716 1 23.915 1.68716e+17 22359.2 1015.11 407.493 3932.54 305.772 3.98216 1.1711e+17 7.05481e+13 0 2.42685e+16 1.98593e+16 0 7.40755e+15 0 0 0 
1228 1 26.875 1.89598e+17 21794.2 1069.8 443.64 3680.41 361.131 11.3443 1.29068e+17 2.46918e+14 0 2.86778e+16 2.40922e+16 0 7.51337e+15 0 0 0 
1740 1 20.02 1.41237e+17 21143.1 1112.83 386.827 4655.22 276.005 -7.23415 1.04376e+17 0 0 1.62261e+16 1.47798e+16 0 5.85549e+15 0 0 0 
2252 1 20.985 1.48045e+17 21607.8 966.502 418.021 4194.73 348.371 -5.18423 1.04341e+17 7.05481e+13 0 1.97182e+16 1.8025e+16 0 5.89076e+15 0 0 0 
148 1 35.475 1.25135e+17 16683.5 969.026 339.123 5423.71 304.364 -1.60982 9.58748e+16 5.29111e+13 0 1.23635e+16 1.14641e+16 0 5.37929e+15 0 0 0 
276 1 28.485 1.00478e+17 11957 806.422 271.952 6265.54 214.413 -5.42062 8.35113e+16 0 0 6.49042e+15 6.03186e+15 0 4.44453e+15 0 0 0 
156 1 26.08 9.19947e+16 7704.3 516.231 213.16 6768.3 140.818 3.14786 8.05659e+16 0 0 3.68614e+15 3.45686e+15 0 4.2858e+15 0 0 0 
284 1 24.88 8.77618e+16 5650.87 327.197 185.338 6992.21 113.458 0.497397 7.93489e+16 0 0 2.50446e+15 2.15172e+15 0 3.75668e+15 0 0 0 
780 1 29.155 2.05683e+17 21028.1 1225.47 485.103 3406.08 428.437 -1.21163 1.39403e+17 1.05822e+14 0 3.02651e+16 2.69846e+16 0 8.92433e+15 0 0 0 
1804 1 22.665 1.59897e+17 20684.4 1013.7 442.269 4242.6 376.633 -5.11468 1.14605e+17 0 0 2.01062e+16 1.8025e+16 0 7.16063e+15 0 0 0 
5196 1 24.97 3.52317e+17 19636.6 1169.11 512.885 2254.14 279.93 -9.72282 2.20181e+17 3.5274e+14 0 6.26467e+16 5.55919e+16 0 1.35452e+16 0 0 0 
9292 1 28.525 4.02477e+17 17126.4 1146.74 567.322 1757.48 341.64 -2.30761 2.45155e+17 2.11644e+14 0 7.58392e+16 6.6809e+16 0 1.44624e+16 0 0 0 
13388 1 21.255 2.999e+17 19847.5 1210.13 602.054 2444.15 332.366 -5.20286 1.87799e+17 7.05481e+13 0 5.5098e+16 4.64912e+16 0 1.04411e+16 0 0 0 
17484 1 23.515 3.31788e+17 18343.7 1303.34 483.84 2032.8 383.771 11.5074 2.04096e+17 5.64385e+14 0 5.75672e+16 5.68617e+16 0 1.26987e+16 0 0 0 
5828 1 20.2 2.85014e+17 19479.8 1014.7 443.953 1997.63 238.824 11.9992 1.70867e+17 6.34933e+14 0 5.25583e+16 4.89604e+16 0 1.19932e+16 0 0 0 
9924 1 24.705 3.48578e+17 17490.5 1256.41 539.92 1739.12 218.299 -1.7266 2.10657e+17 1.41096e+14 0 6.42693e+16 6.17296e+16 0 1.17815e+16 0 0 0 
14020 1 18.8 2.65261e+17 19777.6 973.392 479.897 2076.07 238.917 10.0886 1.68116e+17 2.11644e+14 0 4.28932e+16 4.27521e+16 0 1.12877e+16 0 0 0 
18116 1 22.18 3.12951e+17 18460.3 1180.68 563.67 1879.87 261.863 12.0304 1.92667e+17 2.11644e+14 0 5.5733e+16 5.07946e+16 0 1.35452e+16 0 0 0 
6340 1 28.79 4.06216e+17 14494.7 1349.52 545.927 1260.18 262.884 6.14293 2.36054e+17 2.82192e+14 0 8.01426e+16 7.61214e+16 0 1.36158e+16 0 0 0 
10436 1 35.765 5.0463e+17 13329.2 1328.77 589.289 1108.16 293.765 11.3304 2.9729e+17 2.82192e+14 0 1.042e+17 8.52221e+16 0 1.7637e+16 0 0 0 
14532 1 26.61 3.75457e+17 16413.4 1158.56 557.813 1581.1 289.826 1.13746 2.24413e+17 1.41096e+14 0 7.38638e+16 6.51864e+16 0 1.18521e+16 0 0 0 
18628 1 31.71 4.47416e+17 13407.5 1265.17 569.733 1122.52 321.134 5.50884 2.6773e+17 1.41096e+14 0 8.25412e+16 7.96488e+16 0 1.73548e+16 0 0 0 
5892 1 45.58 6.43116e+17 10512.8 1116.76 580.359 760.15 287.132 -4.76777 3.73693e+17 2.82192e+14 0 1.29738e+17 1.14641e+17 0 2.47624e+16 0 0 0 
9988 1 59.12 8.3416e+17 9072.27 1355.22 614.151 626.681 282.15 0.558926 4.89463e+17 7.76029e+14 0 1.77922e+17 1.36863e+17 0 2.91364e+16 0 0 0 
14084 1 39.2 5.53097e+17 12431.1 1240.74 604.682 1029.18 327.278 7.36434 3.26779e+17 2.82192e+14 0 1.07868e+17 9.85557e+16 0 1.96124e+16 0 0 0 
18180 1 49.795 7.02588e+17 9600 1162.23 584.312 689.611 357.621 -5.74268 4.1708e+17 7.05481e+14 0 1.42437e+17 1.19508e+17 0 2.28576e+16 0 0 0 
4748 1 33.64 4.74647e+17 15199.3 1409.79 566.875 1507.77 374.05 -15.9627 2.91293e+17 2.82192e+14 0 8.79734e+16 7.78145e+16 0 1.72843e+16 0 0 0 
8844 1 40.28 5.68335e+17 12130.4 1284.74 590.376 1093.12 398.342 -0.117273 3.44839e+17 8.46577e+14 0 1.11184e+17 9.3194e+16 0 1.8272e+16 0 0 0 
12940 1 27.335 3.85686e+17 17163.4 1300.56 554.836 1942.46 387.912 10.9813 2.41345e+17 2.82192e+14 0 6.94899e+16 6.03186e+16 0 1.42507e+16 0 0 0 
17036 1 31.005 4.37469e+17 14936.2 1306.11 561.611 1572.32 437.118 -1.96593 2.69141e+17 1.41096e+14 0 8.43049e+16 6.97015e+16 0 1.41802e+16 0 0 0 
5772 1 20.84 2.94044e+17 17625.6 1371.5 535.833 2108.35 433.955 8.70931 1.79263e+17 2.82192e+14 0 5.19234e+16 5.01597e+16 0 1.24165e+16 0 0 0 
9868 1 23.595 3.32916e+17 15859.6 1274.52 591.713 1841.06 496.891 6.08619 2.03813e+17 2.82192e+14 0 6.5257e+16 5.3546e+16 0 1.00178e+16 0 0 0 
13964 1 17.39 2.45366e+17 18965.5 1133.84 509.973 2365.24 465.039 -28.4804 1.56405e+17 1.41096e+14 0 4.33165e+16 3.71083e+16 0 8.39522e+15 0 0 0 
18060 1 19.365 2.73233e+17 18772.8 1342.33 578.263 2543.13 480.54 13.0212 1.77005e+17 9.87673e+14 0 4.58562e+16 4.02124e+16 0 9.17125e+15 0 0 0 
73 1 24.47 8.63156e+16 6065.34 194.193 155.37 7016.19 11.5844 4.66883 7.83789e+16 0 0 1.67552e+15 2.31045e+15 0 3.95069e+15 0 0 0 
137 1 25.55 9.01252e+16 8954.73 262.322 182.263 6750.07 27.9384 -1.89173 7.95253e+16 3.5274e+13 0 3.08648e+15 3.82723e+15 0 3.65086e+15 0 0 0 
201 1 23.46 8.27529e+16 5046.37 188.5 160.637 7103.14 13.165 0.942094 7.53453e+16 1.7637e+13 0 1.4286e+15 2.02826e+15 0 3.93306e+15 0 0 0 
265 1 25.565 9.01781e+16 7308.93 244.638 160.416 6901.98 27.2819 -0.107035 8.06894e+16 1.7637e+13 0 2.46918e+15 3.06884e+15 0 3.93306e+15 0 0 0 
81 1 23.66 8.34584e+16 4362.53 175.812 153.851 7154.37 21.3274 -2.89023 7.69856e+16 1.7637e+13 0 1.18168e+15 1.53442e+15 0 3.73905e+15 0 0 0 
145 1 24.4 8.60686e+16 5985.48 224.168 153.274 7015.01 33.0087 1.61539 7.80438e+16 1.7637e+13 0 1.81661e+15 2.41627e+15 0 3.77432e+15 0 0 0 
209 1 23.61 8.3282e+16 3679.4 161.412 148.375 7212.78 16.6214 0.343043 7.67034e+16 0 0 1.25223e+15 1.41096e+15 0 3.91542e+15 0 0 0 
273 1 23.795 8.39346e+16 4602.92 211.632 152.607 7127.44 23.0802 -4.65076 7.74971e+16 0 0 1.07586e+15 1.67552e+15 0 3.68614e+15 0 0 0 
89 1 23.025 8.12185e+16 2969.12 172.929 142.376 7266.36 14.6224 -4.00517 7.5751e+16 0 0 8.81851e+14 9.70036e+14 0 3.61559e+15 0 0 0 
153 1 23.66 8.34584e+16 3785.42 196.214 152.997 7197.25 28.0828 -0.80539 7.70914e+16 0 0 1.12877e+15 1.62261e+15 0 3.61559e+15 0 0 0 
217 1 23.135 8.16065e+16 2402.95 174.307 150.496 7301.49 18.6058 0.0464824 7.62448e+16 0 0 5.46748e+14 1.16404e+15 0 3.65086e+15 0 0 0 
281 1 23.685 8.35466e+16 2748.38 191.587 149.35 7274.02 21.2813 0.402623 7.74618e+16 0 0 9.52399e+14 1.18168e+15 0 3.95069e+15 0 0 0 
74 1 27.42 9.67214e+16 12917.9 351.012 208.089 6325.79 48.2599 -1.77787 8.09716e+16 5.29111e+13 0 5.32638e+15 6.01422e+15 0 4.35634e+15 0 0 0 
138 1 31.1 1.09702e+17 17876.5 532.228 248.499 5655.46 86.0607 -2.03284 8.74443e+16 8.81851e+13 0 8.21885e+15 9.22416e+15 0 4.72672e+15 0 0 0 
202 1 25.97 9.16067e+16 10921 318.605 197.69 6552.51 48.4698 -1.80665 7.9684e+16 1.7637e+13 0 3.75668e+15 4.32107e+15 0 3.82723e+15 0 0 0 
266 1 28.82 1.0166e+17 14031.8 456.251 222.193 6184.08 77.2134 -2.36646 8.53103e+16 3.5274e+13 0 5.69676e+15 6.10241e+15 0 4.51508e+15 0 0 0 
82 1 25.525 9.0037e+16 8777.04 264.782 174.069 6758.47 45.2356 -3.80773 7.94019e+16 1.7637e+13 0 2.99829e+15 3.26285e+15 0 4.35634e+15 0 0 0 
146 1 27.4 9.66509e+16 11917.1 392.535 206.22 6420.34 80.9851 -2.24064 8.24001e+16 0 0 4.69145e+15 5.34402e+15 0 4.21525e+15 0 0 0 
210 1 25.035 8.83086e+16 6692.02 217.778 166.248 6946.14 41.9455 1.01194 7.92784e+16 3.5274e+13 0 2.04589e+15 2.91011e+15 0 4.03888e+15 0 0 0 
274 1 25.35 8.94197e+16 8028.61 356.709 184.406 6811.9 61.8996 1.56251 7.90315e+16 0 0 3.29812e+15 3.35103e+15 0 3.73905e+15 0 0 0 
90 1 24.02 8.47282e+16 4429.83 186.1 151.701 7140.57 28.7942 1.54802 7.71972e+16 1.7637e+13 0 1.34041e+15 2.06353e+15 0 4.10943e+15 0 0 0 
154 1 24.11 8.50457e+16 5229.11 238.124 167.089 7059.63 49.9337 -6.77984 7.72149e+16 0 0 1.83425e+15 2.27518e+15 0 3.72141e+15 0 0 0 
218 1 22.975 8.10421e+16 2885.87 177.353 150.603 7260.27 29.0731 -2.00313 7.53453e+16 0 0 8.11303e+14 1.14641e+15 0 3.73905e+15 0 0 0 
282 1 23.635 8.33702e+16 4212.07 231.624 157.425 7145.15 43.0762 3.11194 7.69503e+16 1.7637e+13 0 1.34041e+15 1.60497e+15 0 3.45686e+15 0 0 0 
91 1 25.395 8.95784e+16 6875.11 320.946 173.211 6906.62 67.7877 5.70731 8.0319e+16 5.29111e+13 0 2.27518e+15 2.575e+15 0 4.35634e+15 0 0 0 
219 1 24.245 8.55219e+16 4500.1 238.633 160.076 7116.53 53.2991 -0.238858 7.83789e+16 0 0 1.67552e+15 1.58733e+15 0 3.88014e+15 0 0 0 
75 1 37.415 1.31978e+17 21393 750.567 307.188 4881.61 132.682 -0.110212 9.83793e+16 1.23459e+14 0 1.40038e+16 1.42683e+16 0 5.20292e+15 0 0 0 
203 1 32.855 1.15893e+17 18539.9 579.124 271.974 5497.69 134.084 1.91347 9.02839e+16 0 0 9.85909e+15 1.02824e+16 0 5.46748e+15 0 0 0 
83 1 28.785 1.01536e+17 14313.3 431.239 218.28 6112.81 120.778 -2.79636 8.42344e+16 1.7637e+13 0 5.9084e+15 6.94899e+15 0 4.42689e+15 0 0 0 
211 1 26.275 9.26825e+16 10216.6 375.447 185.855 6586.07 91.7494 -1.26284 8.03543e+16 0 0 3.79196e+15 4.35634e+15 0 4.17997e+15 0 0 0 
1731 1 18.205 1.28433e+17 22344.8 786.932 324.493 4604.35 90.382 -17.6117 9.30176e+16 7.05481e+13 0 1.44624e+16 1.45329e+16 0 6.34933e+15 0 0 0 
2243 1 21.525 1.51855e+17 23266.6 870.179 341.088 3962.48 128.67 11.2912 1.04376e+17 1.41096e+14 0 2.22579e+16 1.99298e+16 0 5.15001e+15 0 0 0 
155 1 25.23 8.89964e+16 7780.03 345.596 184.77 6817.38 93.5065 2.22816 7.81673e+16 0 0 2.94538e+15 3.35103e+15 0 4.53271e+15 0 0 0 
283 1 24.055 8.48517e+16 4527.62 269.506 182.502 7104.39 67.8211 -5.1083 7.72149e+16 0 0 1.7637e+15 1.92243e+15 0 3.95069e+15 0 0 0 
267 1 38.29 1.35064e+17 20975.6 736.446 325.423 4815.71 210.694 3.33899 9.91377e+16 1.7637e+13 0 1.50444e+16 1.50091e+16 0 5.85549e+15 0 0 0 
147 1 31.72 1.11889e+17 16568.6 570.819 264.285 5756.23 167.626 -4.73914 8.97901e+16 1.7637e+13 0 8.95961e+15 8.34231e+15 0 4.77963e+15 0 0 0 
275 1 27.505 9.70212e+16 11498 526.19 227.898 6413.23 131.923 -4.44316 8.27176e+16 5.29111e+13 0 5.22056e+15 4.44453e+15 0 4.58562e+15 0 0 0 
651 1 25.3 1.78487e+17 23077.4 1075.72 401.909 3967.52 172.456 9.72945 1.24623e+17 3.5274e+13 0 2.21521e+16 2.46918e+16 0 6.98426e+15 0 0 0 
1163 1 29.71 2.09598e+17 22549.2 1134.46 438.895 3243.11 231.136 6.06766 1.36334e+17 1.7637e+14 0 3.32634e+16 3.19936e+16 0 7.83084e+15 0 0 0 
1675 1 20.23 1.42719e+17 22584.2 868.447 340.294 4286.32 204.545 1.0625 1.02224e+17 0 0 1.74254e+16 1.74254e+16 0 5.64385e+15 0 0 0 
2187 1 24.86 1.75383e+17 22671.7 974.862 456.236 3659.3 259.982 -10.6045 1.16898e+17 7.05481e+13 0 2.62086e+16 2.44096e+16 0 7.79556e+15 0 0 0 
1795 1 25.255 1.78169e+17 23235 925.259 400.628 3379.46 150.25 10.273 1.17145e+17 1.05822e+14 0 2.75843e+16 2.58911e+16 0 7.44282e+15 0 0 0 
2307 1 32.445 2.28893e+17 21442.8 995.332 483.454 2577.14 196.186 1.26154 1.45435e+17 1.05822e+14 0 3.83076e+16 3.78138e+16 0 7.23118e+15 0 0 0 
1292 2 31.01 2.1877e+17 19704 1371.4 513.616 3482.97 478.715 7.51949 1.46705e+17 0 0 3.38278e+16 3.00182e+16 0 8.21885e+15 0 0 0 
2316 2 22.36 1.57745e+17 19629 1344.32 463.259 4318.68 433.343 5.17911 1.11148e+17 7.05481e+13 0 2.14113e+16 1.88716e+16 0 6.2435e+15 0 0 0 
5252 2 183.94 2.59532e+18 7672.99 1603.12 705.016 560.076 67.5008 11.3397 1.52158e+18 1.48151e+15 0 5.39622e+17 4.57857e+17 0 7.4781e+16 0 0 0 
13444 2 163.52 2.3072e+18 4894.08 1303.26 640.595 163.6 117.427 -2.04443 1.36482e+18 1.05822e+15 0 4.78528e+17 3.89214e+17 0 7.35816e+16 0 0 0 
17540 2 345.59 4.87614e+18 2553.08 1112.59 596.991 20.1953 109.527 3.59131 3.06919e+18 2.61028e+15 0 9.68696e+17 6.93417e+17 0 1.42225e+17 0 0 0 
6276 2 141.57 1.9975e+18 4067.24 1196.18 629.626 64.6538 147.075 3.20513 1.1797e+18 8.46577e+14 0 4.21243e+17 3.31858e+17 0 6.3846e+16 0 0 0 
10372 2 243.47 3.43527e+18 2502.1 1047.81 579.178 1.68806 125.812 -1.94273 2.12068e+18 1.62261e+15 0 6.96098e+17 5.03008e+17 0 1.13865e+17 0 0 0 
14468 2 123.135 1.73739e+18 4323.7 1207.84 613.09 95.9215 169.233 1.87356 1.02944e+18 2.89247e+15 0 3.69954e+17 2.79582e+17 0 5.55213e+16 0 0 0 
18564 2 201.315 2.84048e+18 2834.46 1047.92 570.813 26.4406 119.643 -2.1637 1.74783e+18 9.17125e+14 0 5.77013e+17 4.25546e+17 0 8.91728e+16 0 0 0 
5260 2 48.53 6.8474e+17 10877.9 1411.02 623.74 970.845 442.232 9.8259 4.20043e+17 6.34933e+14 0 1.35452e+17 1.07727e+17 0 2.08822e+16 0 0 0 
9356 2 55.105 7.7751e+17 9923.2 1352.04 612.373 911.282 454.976 3.24003 4.89039e+17 6.34933e+14 0 1.48998e+17 1.13723e+17 0 2.51151e+16 0 0 0 
13452 2 34.64 4.88757e+17 14075.9 1376.87 609.625 1549.09 470.465 0.303447 2.99688e+17 2.11644e+14 0 9.49577e+16 7.62625e+16 0 1.7637e+16 0 0 0 
17548 2 38.3 5.40398e+17 13022.3 1383.31 593.139 1498.32 517.642 -3.51259 3.32705e+17 4.23288e+14 0 1.05963e+17 8.25412e+16 0 1.87658e+16 0 0 0 
6284 2 25.105 3.54222e+17 15642.9 1421.97 554.847 1901.47 509.039 -6.73031 2.17994e+17 2.82192e+14 0 6.76556e+16 5.54508e+16 0 1.28397e+16 0 0 0 
10380 2 27.945 3.94293e+17 14970.2 1578.21 607.744 1908.33 561.61 16.4659 2.46424e+17 7.76029e+14 0 7.26645e+16 6.19412e+16 0 1.2487e+16 0 0 0 
14476 2 20.565 2.90164e+17 17889.5 1572.27 557.716 2458.58 497.594 -1.83159 1.90339e+17 1.41096e+14 0 4.85371e+16 4.19761e+16 0 9.17125e+15 0 0 0 
18572 2 21.17 2.98701e+17 17649.6 1448.16 558.946 2516.07 545.044 -6.28632 1.97182e+17 3.5274e+14 0 4.73378e+16 4.36693e+16 0 1.01589e+16 0 0 0 
5380 2 114.01 1.60864e+18 6097.23 1271.6 603.321 309.677 183.379 -0.184617 9.44145e+17 4.93837e+14 0 3.3849e+17 2.75067e+17 0 5.04419e+16 0 0 0 
9476 2 179.925 2.53867e+18 3796.81 1163.15 598.546 134.137 144.681 -0.197753 1.55728e+18 1.26987e+15 0 5.08299e+17 3.8879e+17 0 8.30351e+16 0 0 0 
13572 2 98.42 1.38867e+18 6164.02 1299.54 600.18 313.32 229.289 -6.77406 8.12361e+17 1.41096e+14 0 2.92633e+17 2.34361e+17 0 4.9172e+16 0 0 0 
17668 2 148.425 2.09422e+18 4229.23 1152.25 613.521 167.158 201.027 5.41532 1.29209e+18 1.05822e+15 0 4.16375e+17 3.24309e+17 0 6.03892e+16 0 0 0 
6404 2 79.71 1.12468e+18 6524.72 1318.25 590.497 362.803 302.449 1.90412 6.72182e+17 1.05822e+15 0 2.26459e+17 1.87799e+17 0 3.71788e+16 0 0 0 
10500 2 118.73 1.67523e+18 4519.94 1147.09 603.976 187.664 264.651 1.10987 1.02111e+18 1.48151e+15 0 3.40183e+17 2.6004e+17 0 5.24172e+16 0 0 0 
14596 2 63.755 8.99558e+17 8113.8 1239.63 593.554 570.895 363.227 -6.89291 5.46465e+17 5.64385e+14 0 1.751e+17 1.46387e+17 0 3.10412e+16 0 0 0 
18692 2 86.025 1.21378e+18 6123.88 1285.97 619.697 390.985 350.485 2.50049 7.38215e+17 1.34041e+15 0 2.52421e+17 1.78346e+17 0 4.34576e+16 0 0 0 
8 3 8.71 1.53618e+16 7936.87 3496.46 992.762 4879.86 -204.538 45.5458 9.22416e+15 3.5274e+13 0 3.06884e+15 2.51328e+15 0 5.20292e+14 0 0 0 
7 3 7.985 1.40832e+16 8847.73 3698.46 1024.7 4307.7 -308.786 -29.7109 7.98075e+15 0 0 3.08648e+15 2.49564e+15 0 5.20292e+14 0 0 0 
80 3 25.24 8.90317e+16 5120.32 1538.25 457.684 6436.6 22.4931 7.92835 6.5645e+16 3.5274e+13 0 9.94728e+15 9.84146e+15 0 3.56268e+15 0 0 0 
144 3 24.125 8.50986e+16 4655.47 1437.47 408.903 6552.89 10.3731 -14.8903 6.49924e+16 1.05822e+14 0 9.06543e+15 7.90138e+15 0 3.03357e+15 0 0 0 
208 3 28.825 1.01677e+17 4747.75 1361.94 424.519 6594.26 121.107 4.89604 7.9296e+16 0 0 1.00531e+16 8.60686e+15 0 3.72141e+15 0 0 0 
272 3 27.27 9.61923e+16 4584.47 1319.94 423.154 6624.12 104.872 -1.8136 7.50279e+16 5.29111e+13 0 9.66509e+15 7.54864e+15 0 3.89778e+15 0 0 0 
88 3 27.395 9.66332e+16 3982.56 1028 328.07 6837.99 135.304 -2.03119 8.0319e+16 1.7637e+13 0 6.79025e+15 5.85549e+15 0 3.65086e+15 0 0 0 
152 3 26.405 9.31411e+16 3744.3 976.545 316.411 6879.62 127.88 -3.81172 7.74089e+16 3.5274e+13 0 6.29642e+15 5.34402e+15 0 4.05651e+15 0 0 0 
216 3 26.1 9.20652e+16 3426.54 862.235 277.128 7002.66 129.404 6.06761 7.98604e+16 0 0 4.46217e+15 3.6685e+15 0 4.07415e+15 0 0 0 
280 3 25.775 9.09188e+16 3051.84 764.193 265.409 7038.03 130.82 0.732834 7.95077e+16 5.29111e+13 0 4.21525e+15 3.29812e+15 0 3.84487e+15 0 0 0 
96 3 24.505 8.6439e+16 2812.61 636.109 256.675 7123.76 122.305 3.05164 7.70032e+16 1.7637e+13 0 3.20994e+15 2.25754e+15 0 3.95069e+15 0 0 0 
160 3 25.355 8.94373e+16 2706.54 598.104 243.44 7121.86 122.449 -3.96011 8.00368e+16 1.7637e+13 0 2.78665e+15 2.62792e+15 0 3.96833e+15 0 0 0 
224 3 24.575 8.66859e+16 2359.77 525.359 212.801 7213.57 112.696 -2.67631 7.9296e+16 0 0 1.88716e+15 1.60497e+15 0 3.89778e+15 0 0 0 
288 3 24.635 8.68976e+16 2215.46 522.75 210.615 7224.76 110.484 -5.25163 7.949e+16 1.7637e+13 0 1.88716e+15 1.62261e+15 0 3.88014e+15 0 0 0 
79 3 27.79 9.80265e+16 5837.33 1648.99 518.85 6255.1 42.5686 2.65436 6.99308e+16 3.5274e+13 0 1.27339e+16 1.16404e+16 0 3.68614e+15 0 0 0 
143 3 27.48 9.69331e+16 5380.14 1835.83 458.234 6363.96 22.1801 -9.107 7.16063e+16 0 0 1.16228e+16 1.03177e+16 0 3.38631e+15 0 0 0 
207 3 30.31 1.06916e+17 5563.97 1523.29 435.034 6486.82 141.248 -10.0842 8.31762e+16 1.05822e+14 0 1.05646e+16 9.1007e+15 0 3.96833e+15 0 0 0 
271 3 28.51 1.00566e+17 5092.13 1404.53 440.515 6548.31 126.363 9.22606 7.89962e+16 8.81851e+13 0 9.45344e+15 8.65978e+15 0 3.36867e+15 0 0 0 
87 3 28.13 9.92259e+16 4844.62 1149.64 338.14 6764.54 175.741 5.94552 8.25765e+16 0 0 6.5257e+15 6.26114e+15 0 3.86251e+15 0 0 0 
151 3 27.515 9.70565e+16 4284.6 1035.18 324.021 6814.71 153.7 2.56308 8.07952e+16 3.5274e+13 0 6.68443e+15 5.59093e+15 0 3.95069e+15 0 0 0 
215 3 26.05 9.18889e+16 4237.24 860.861 272.186 6927.91 158.035 7.17996 7.949e+16 1.7637e+13 0 4.35634e+15 3.88014e+15 0 4.1447e+15 0 0 0 
279 3 25.855 9.1201e+16 4019.57 932.938 272.898 6940.75 164.83 1.77913 7.89786e+16 3.5274e+13 0 4.37398e+15 3.88014e+15 0 3.93306e+15 0 0 0 
95 3 24.975 8.80969e+16 3645.97 591.156 229.291 7074.24 145.191 -1.43346 7.90138e+16 3.5274e+13 0 2.7161e+15 2.52209e+15 0 3.8096e+15 0 0 0 
159 3 25.495 8.99312e+16 3271.3 649.065 240.732 7085.26 135.676 2.81514 8.03719e+16 3.5274e+13 0 2.98066e+15 2.64555e+15 0 3.89778e+15 0 0 0 
223 3 24.475 8.63332e+16 3144.55 462.694 201.248 7146.95 120.594 4.48705 7.82202e+16 0 0 2.09881e+15 1.72843e+15 0 4.2858e+15 0 0 0 
287 3 24.275 8.56277e+16 2698.28 462.558 201.724 7184.5 112.848 -0.381178 7.80085e+16 1.7637e+13 0 2.04589e+15 1.7637e+15 0 3.79196e+15 0 0 0 
142 3 29.965 1.05699e+17 6384.07 1888.49 542.691 6145.25 47.3736 -7.50953 7.44282e+16 1.7637e+13 0 1.49386e+16 1.26987e+16 0 3.61559e+15 0 0 0 
270 3 31.12 1.09773e+17 6352.79 1636.16 483.241 6342.14 182.233 7.68606 8.3476e+16 0 0 1.29456e+16 8.97724e+15 0 4.37398e+15 0 0 0 
150 3 28.63 1.0099e+17 6148.2 1182.56 347.749 6601.05 226.184 -5.66413 8.31938e+16 1.7637e+13 0 7.4781e+15 6.49042e+15 0 3.8096e+15 0 0 0 
278 3 27.01 9.52752e+16 5133.11 830.835 280.291 6854.16 192.542 -3.12454 8.21003e+16 1.7637e+13 0 4.55035e+15 4.03888e+15 0 4.56799e+15 0 0 0 
158 3 25.08 8.84673e+16 4138.58 625.028 231.894 7037.95 144.098 3.89096 7.90138e+16 1.7637e+13 0 3.13939e+15 2.7161e+15 0 3.58031e+15 0 0 0 
286 3 24.15 8.51868e+16 3645.41 509.477 197.405 7111.24 127.1 1.81118 7.72325e+16 1.7637e+13 0 2.15172e+15 1.94007e+15 0 3.84487e+15 0 0 0 
5 3 162.16 2.77326e+18 2888.32 1017.41 566.26 105.756 187.352 2.68458 1.7928e+18 2.30877e+15 0 5.23407e+17 3.68634e+17 0 8.61086e+16 0 0 0 
5 3 2.085 1.47972e+16 9049.77 2579.75 892.714 2534.88 -669.498 -75.0484 8.65829e+15 0 0 3.05169e+15 2.37748e+15 0 7.09696e+14 0 0 0 
149 3 32.15 1.13406e+17 10675.6 1215.9 361.954 6091.24 301.693 -2.0841 8.97371e+16 1.7637e+13 0 1.00884e+16 8.53632e+15 0 5.02655e+15 0 0 0 
277 3 27.69 9.76738e+16 8549.48 803.25 303.588 6517.7 224.927 -3.35266 8.19945e+16 5.29111e+13 0 5.82022e+15 5.94368e+15 0 3.86251e+15 0 0 0 
157 3 26.11 9.21005e+16 6198.83 678.479 225.165 6848.04 176.494 3.93971 8.07775e+16 1.7637e+13 0 4.39162e+15 3.17466e+15 0 3.73905e+15 0 0 0 
285 3 25.125 8.8626e+16 5196.71 415.624 200.277 6997.51 132.56 -4.58107 7.96488e+16 3.5274e+13 0 2.7161e+15 2.25754e+15 0 3.96833e+15 0 0 0 
6 3 6.085 1.156e+16 10196.2 3991.7 815.878 3647.27 -551.376 -107.339 6.3547e+15 0 0 2.61217e+15 2.10873e+15 0 4.84439e+14 0 0 0 
78 3 32.67 1.1524e+17 7513.92 2220.65 629.204 5807.57 99.4275 -4.0395 7.7938e+16 5.29111e+13 0 1.79016e+16 1.55029e+16 0 3.84487e+15 0 0 0 
206 3 33.2 1.1711e+17 7999.24 1815.88 493.224 6113.11 247.007 4.77855 8.82909e+16 7.05481e+13 0 1.34747e+16 1.10584e+16 0 4.21525e+15 0 0 0 
86 3 29.66 1.04623e+17 7690.8 1226.76 348.471 6446.53 260.84 10.6251 8.52573e+16 0 0 8.1483e+15 7.10772e+15 0 4.10943e+15 0 0 0 