ITEM: TIMESTEP
19000
ITEM: NUMBER OF CELLS
240
ITEM: BOX BOUNDS oo ao pp
-10 10
0 10
-0.5 0.5
ITEM: CELLS id proc f_avg_n f_avg_nrho f_avg_temp_tra f_avg_temp_rot f_avg_temp_vib f_avg_vel[1] f_avg_vel[2] f_avg_vel[3] f_avg_nrho_CO2 f_avg_nrho_O2 f_avg_nrho_C2 f_avg_nrho_CO f_avg_nrho_O f_avg_nrho_C f_avg_nrho_N2 f_avg_nrho_N f_avg_nrho_NO f_avg_nrho_CN 
65 0 24.6183 8.68388e+16 6268.08 185.762 155.934 7003.56 10.7383 -0.851319 7.84142e+16 0 0 1.93419e+15 2.50446e+15 0 3.98597e+15 0 0 0 
129 0 26.3767 9.30412e+16 9358.75 271.925 186.399 6713.25 26.0304 0.990551 8.10303e+16 1.1758e+13 0 3.16878e+15 4.06239e+15 0 4.76787e+15 0 0 0 
193 0 24.4617 8.62862e+16 6444.24 203.041 156.133 6987.65 9.82594 -1.61792 7.79086e+16 0 0 1.91068e+15 2.58676e+15 0 3.88014e+15 0 0 0 
257 0 25.7283 9.07542e+16 9675.65 251.664 176.498 6686.57 13.4686 1.20154 7.90138e+16 1.7637e+13 0 3.58031e+15 3.99185e+15 0 4.15058e+15 0 0 0 
66 0 29.3217 1.03429e+17 13517.7 399.921 208.21 6266.68 30.0642 1.02365 8.65213e+16 2.3516e+13 0 5.55566e+15 6.79613e+15 0 4.53271e+15 0 0 0 
130 0 34.3333 1.21108e+17 18940.8 543.093 268.449 5490.26 36.4871 -0.360827 9.46696e+16 1.7637e+13 0 9.80618e+15 1.10349e+16 0 5.57918e+15 0 0 0 
194 0 28.4933 1.00507e+17 14335.9 421.792 215.511 6173.87 32.9417 0.456205 8.41345e+16 1.1758e+13 0 5.70264e+15 6.44927e+15 0 4.20937e+15 0 0 0 
258 0 33.155 1.16951e+17 19159.5 551.662 261.575 5445.51 56.9 0.939734 9.11246e+16 2.3516e+13 0 9.92964e+15 1.09643e+16 0 4.90897e+15 0 0 0 
579 0 29.7617 2.09963e+17 15998.1 539.409 252.124 5895.37 62.8739 -7.96214 1.69656e+17 5.87901e+13 0 1.51208e+16 1.5744e+16 0 9.38289e+15 0 0 0 
1091 0 32.57 2.29775e+17 18645.2 710.918 294.927 5425.34 70.2674 -7.79713 1.76112e+17 3.5274e+13 0 2.10704e+16 2.2787e+16 0 9.77091e+15 0 0 0 
1603 0 17.9217 1.26434e+17 23905.1 684.955 356.235 3921.48 33.2162 -5.78338 8.66448e+16 3.5274e+13 0 1.62496e+16 1.78016e+16 0 5.70264e+15 0 0 0 
2115 0 21.49 1.51608e+17 23467.5 1003.49 425.607 3311.17 40.0846 8.27432 9.96256e+16 2.3516e+13 0 2.23402e+16 2.32809e+16 0 6.33757e+15 0 0 0 
707 0 21.725 1.53266e+17 21347 707.951 322.184 4918.74 56.7346 -0.86476 1.1303e+17 4.7032e+13 0 1.58968e+16 1.71197e+16 0 7.17239e+15 0 0 0 
1219 0 24.885 1.75559e+17 23223 827.416 358.291 4236.08 78.732 3.76565 1.24529e+17 8.23061e+13 0 2.20698e+16 2.24813e+16 0 6.39636e+15 0 0 0 
643 0 37.9233 2.67542e+17 21673.9 914.159 339.649 4664.39 58.5831 8.53938 1.93114e+17 5.87901e+13 0 3.22522e+16 3.2652e+16 0 9.4652e+15 0 0 0 
1667 0 27.6633 1.95159e+17 21831.6 1041.29 446.604 2527.75 76.5564 -2.19717 1.22424e+17 9.40641e+13 0 3.23698e+16 3.32164e+16 0 7.05481e+15 0 0 0 
2179 0 37.11 2.61804e+17 18954.2 1148.98 525.326 1878.04 88.9464 3.98957 1.56758e+17 1.1758e+14 0 4.82666e+16 4.7279e+16 0 9.38289e+15 0 0 0 
771 0 29.5833 2.08705e+17 23324.3 989.733 413.549 3444.44 115.753 0.493682 1.38745e+17 7.05481e+13 0 2.9348e+16 3.15467e+16 0 8.99488e+15 0 0 0 
1283 0 38.2133 2.69588e+17 21735.8 1074.43 472.29 2634.9 139.115 -0.830628 1.69598e+17 2.11644e+14 0 4.59973e+16 4.38104e+16 0 9.97079e+15 0 0 0 
5251 0 29.5167 4.16469e+17 18392.1 835.986 351.67 5335.52 75.7029 0.182814 3.11917e+17 9.40641e+13 0 4.10355e+16 4.7032e+16 0 1.63907e+16 0 0 0 
9347 0 31.3117 4.41796e+17 19861 1111.35 402.472 4857.43 52.0658 14.2565 3.13398e+17 6.58449e+14 0 5.97072e+16 5.22056e+16 0 1.58263e+16 0 0 0 
13443 0 19.625 2.76901e+17 22601.3 1219.6 439.552 3383.2 66.587 -0.851774 1.77758e+17 1.64612e+14 0 4.52448e+16 4.29403e+16 0 1.07939e+16 0 0 0 
17539 0 22.3417 3.15232e+17 21950.9 1226.95 464.776 2959.79 70.7773 -4.60387 1.96288e+17 5.17353e+14 0 5.28875e+16 5.063e+16 0 1.49092e+16 0 0 0 
4676 0 34.5983 4.88169e+17 21456.2 1195.91 462.423 4138.98 51.5702 -10.5597 3.24921e+17 1.1758e+14 0 7.36287e+16 7.07597e+16 0 1.87423e+16 0 0 0 
8772 0 41.225 5.81669e+17 21495.1 1369.35 487.649 3962.22 56.6011 5.00638 3.79549e+17 1.88128e+14 0 9.0184e+16 9.22063e+16 0 1.95418e+16 0 0 0 
12868 0 27.205 3.83852e+17 20756.6 1334.12 516.239 2548.64 75.62 7.07266 2.35513e+17 1.64612e+14 0 6.6762e+16 6.61506e+16 0 1.52619e+16 0 0 0 
16964 0 31.7317 4.47722e+17 19035.1 1381.69 573.948 2099.55 75.9296 6.34084 2.64226e+17 1.88128e+14 0 8.63979e+16 8.14595e+16 0 1.545e+16 0 0 0 
5188 0 46.5067 6.56191e+17 21225.3 1464.8 542.458 3171.28 47.8727 -9.09888 4.13059e+17 6.11417e+14 0 1.12242e+17 1.04764e+17 0 2.55149e+16 0 0 0 
9284 0 58.0583 8.19181e+17 19145.4 1537.17 607.513 2469.28 50.7375 4.67874 4.90192e+17 4.93837e+14 0 1.53536e+17 1.46129e+17 0 2.88306e+16 0 0 0 
13380 0 40.21 5.67348e+17 16802.1 1387.51 577.525 1687.01 61.7205 4.82046 3.28942e+17 4.93837e+14 0 1.11866e+17 1.04152e+17 0 2.18934e+16 0 0 0 
17476 0 50.9117 7.18344e+17 14204.3 1556.88 636.527 1280.29 60.517 -4.87161 4.0457e+17 4.46804e+14 0 1.50902e+17 1.37028e+17 0 2.53973e+16 0 0 0 
5700 0 24.465 3.45192e+17 16463.1 1346.72 561.434 1501.04 94.6383 -6.72907 2.01862e+17 1.88128e+14 0 6.81024e+16 6.20118e+16 0 1.30279e+16 0 0 0 
9796 0 30.21 4.26251e+17 14466.3 1237.15 565.12 1137.72 104.696 0.100001 2.46613e+17 2.3516e+14 0 8.50575e+16 7.94842e+16 0 1.48621e+16 0 0 0 
13892 0 24.165 3.40959e+17 16776.2 1171.11 537.256 1499.74 98.5398 9.67893 2.01438e+17 1.41096e+14 0 6.45045e+16 6.06949e+16 0 1.41802e+16 0 0 0 
17988 0 28.9167 4.08003e+17 14113.6 1197.46 574.669 1097.41 124.673 -3.11795 2.33655e+17 2.58676e+14 0 8.0707e+16 7.80027e+16 0 1.53795e+16 0 0 0 
6212 0 37.7417 5.3252e+17 12095.9 1284.17 590.851 833.799 100.386 2.45882 3.05849e+17 4.93837e+14 0 1.10008e+17 9.71917e+16 0 1.89774e+16 0 0 0 
10308 0 48.7833 6.88314e+17 9377.85 1288.59 636.645 528.871 114.165 -1.07723 3.9046e+17 8.93609e+14 0 1.47422e+17 1.27386e+17 0 2.21521e+16 0 0 0 
14404 0 36.4933 5.14907e+17 12093.4 1184.29 584.579 861.366 140.838 -8.18208 2.94891e+17 2.11644e+14 0 1.05799e+17 9.52869e+16 0 1.87188e+16 0 0 0 
18500 0 47.07 6.6414e+17 9792.29 1249.88 591.665 569.925 152.761 1.63071 3.823e+17 4.23288e+14 0 1.37686e+17 1.2052e+17 0 2.32103e+16 0 0 0 
4804 0 24.425 3.44627e+17 19204.5 1175.52 539.898 2042.12 141.003 0.759711 2.09716e+17 1.64612e+14 0 6.14239e+16 6.03892e+16 0 1.29338e+16 0 0 0 
8900 0 29.39 4.14682e+17 17516 1281.73 553.276 1707.81 161.324 -7.1316 2.484e+17 2.58676e+14 0 8.04718e+16 7.10184e+16 0 1.45329e+16 0 0 0 
12996 0 22.915 3.23322e+17 19557.4 1258.78 515.465 2156.02 179.467 -7.92377 1.98499e+17 1.41096e+14 0 5.73556e+16 5.54273e+16 0 1.18991e+16 0 0 0 
17092 0 26.985 3.80748e+17 17931.2 1247.43 544.089 1806.34 190.184 2.56485 2.28928e+17 1.41096e+14 0 7.22883e+16 6.52099e+16 0 1.41802e+16 0 0 0 
5316 0 35.0317 4.94283e+17 14407.4 1313.56 582.207 1195.44 172.093 -0.432831 2.93598e+17 3.99772e+14 0 9.49577e+16 8.77148e+16 0 1.76135e+16 0 0 0 
9412 0 45.7783 6.45915e+17 13160 1263.78 586.009 1069.95 183.18 3.15976 3.77879e+17 3.29224e+14 0 1.28656e+17 1.15722e+17 0 2.33279e+16 0 0 0 
13508 0 33.325 4.70203e+17 16199.7 1287.11 559.382 1527.34 214.633 -5.45526 2.80123e+17 3.05708e+14 0 9.13127e+16 8.11303e+16 0 1.73313e+16 0 0 0 
17604 0 40.535 5.71933e+17 13275.8 1310.96 598.883 1110.63 237.025 6.93931 3.3595e+17 4.93837e+14 0 1.14852e+17 9.99666e+16 0 2.06706e+16 0 0 0 
4868 0 58.3933 8.23907e+17 9913.65 1334.07 609.61 662.084 194.063 -3.48328 4.77093e+17 4.93837e+14 0 1.76017e+17 1.42766e+17 0 2.75373e+16 0 0 0 
8964 0 78.4183 1.10645e+18 7677.74 1281.47 618.945 441.994 198.58 1.26838 6.36203e+17 7.28997e+14 0 2.34408e+17 1.95159e+17 2.3516e+13 3.99302e+16 0 0 0 
13060 0 52.2467 7.3718e+17 10608.8 1313.93 605.358 774.952 248.473 -0.835387 4.30179e+17 4.7032e+14 0 1.5109e+17 1.30679e+17 0 2.47624e+16 0 0 0 
17156 0 68.3083 9.63804e+17 8359.47 1299.75 617.274 514.356 245.955 -1.90497 5.72027e+17 6.34933e+14 0 1.98781e+17 1.61414e+17 0 3.09471e+16 0 0 0 
4740 0 73.9933 1.04402e+18 16277.7 1652.99 643 1823.39 48.1771 -6.61425 5.96531e+17 6.81965e+14 0 2.18511e+17 1.99157e+17 0 2.91364e+16 0 0 0 
8836 0 106.587 1.5039e+18 12287.7 1792.19 683.469 1163.43 54.4272 4.87754 8.51586e+17 8.23061e+14 0 3.18078e+17 2.83486e+17 0 4.99245e+16 0 0 0 
12932 0 68.0283 9.59854e+17 10942.6 1459.53 662.281 801.608 77.6007 -2.46653 5.46865e+17 1.55206e+15 0 2.02638e+17 1.7543e+17 0 3.33692e+16 0 0 0 
17028 0 98.555 1.39057e+18 7982.57 1439.43 637.777 473.801 99.244 3.02477 7.92231e+17 1.15229e+15 0 3.00229e+17 2.51786e+17 0 4.51743e+16 0 0 0 
5764 0 64.9917 9.17007e+17 7665.52 1287.22 638.208 345.674 124.865 -5.16358 5.18152e+17 7.76029e+14 0 1.96994e+17 1.69456e+17 0 3.16291e+16 0 0 0 
9860 0 92.19 1.30077e+18 5532.43 1270.15 622.969 149.889 134.377 -4.11181 7.53406e+17 7.52513e+14 0 2.77207e+17 2.26107e+17 0 4.3293e+16 0 0 0 
13956 0 62.0167 8.75031e+17 7748.38 1304.46 618.073 368.118 153.845 -4.13485 5.0496e+17 7.52513e+14 0 1.82531e+17 1.56781e+17 0 3.00064e+16 0 0 0 
18052 0 85.3333 1.20402e+18 5692.53 1213.76 606.426 178.137 168.098 -2.65462 7.04846e+17 9.87673e+14 0 2.50399e+17 2.07317e+17 0 4.04711e+16 0 0 0 
84 1 33.8117 1.19267e+17 17658.2 769.389 320.369 5456.12 242.437 -4.05077 9.31235e+16 1.7637e+13 0 1.07057e+16 1.02824e+16 0 5.13825e+15 0 0 0 
212 1 28.42 1.00249e+17 12302.6 569.929 237.978 6283.16 168.799 -2.68207 8.42814e+16 1.7637e+13 0 5.67912e+15 5.94368e+15 0 4.32695e+15 0 0 0 
92 1 26.02 9.1783e+16 8325.81 471.35 215.16 6731.58 125.825 -1.94262 8.04366e+16 0 0 3.60971e+15 3.53328e+15 0 4.20349e+15 0 0 0 
220 1 24.54 8.65625e+16 5274.07 306.903 176.067 7030.95 84.2435 -0.232495 7.84024e+16 0 0 2.11644e+15 2.35748e+15 0 3.68614e+15 0 0 0 
588 1 36.9817 2.60899e+17 21268.3 1095.04 478.671 2707.22 278.55 2.05221 1.6761e+17 1.1758e+14 0 4.27051e+16 4.04476e+16 0 1.00178e+16 0 0 0 
1612 1 28.8017 2.0319e+17 22088.1 1024.76 454.664 3150.9 308.433 8.1981 1.33489e+17 9.40641e+13 0 3.15232e+16 2.99359e+16 0 8.1483e+15 0 0 0 
2124 1 34.1933 2.41227e+17 20162.5 1290.3 511.387 2593.5 390.724 -0.134285 1.53901e+17 1.05822e+14 0 4.05769e+16 3.71436e+16 0 9.50047e+15 0 0 0 
716 1 24.2017 1.70738e+17 22380.4 980.956 383.914 4002.45 295.208 3.14753 1.19473e+17 9.40641e+13 0 2.33514e+16 2.11409e+16 0 6.67855e+15 0 0 0 
1228 1 27.335 1.92843e+17 21806.9 1109.2 442.592 3712.81 355.871 4.40554 1.32031e+17 1.99886e+14 0 2.77254e+16 2.51621e+16 0 7.72501e+15 0 0 0 
1740 1 19.7933 1.39638e+17 21382.5 968.374 398.5 4543.81 290.146 -8.91015 1.0173e+17 1.1758e+13 0 1.63436e+16 1.52384e+16 0 6.31405e+15 0 0 0 
2252 1 20.7867 1.46646e+17 21489.8 1030.31 402.442 4305.14 346.412 1.29742 1.04917e+17 5.87901e+13 0 1.8025e+16 1.74489e+16 0 6.19647e+15 0 0 0 
148 1 35.155 1.24006e+17 17243.7 934.48 342.533 5362.37 314.251 0.666169 9.5381e+16 2.3516e+13 0 1.20108e+16 1.14053e+16 0 5.18528e+15 0 0 0 
276 1 29.01 1.0233e+17 11985.6 723.551 265.174 6261.05 214.18 1.9298 8.49105e+16 4.7032e+13 0 6.47279e+15 6.2729e+15 0 4.62678e+15 0 0 0 
156 1 25.9833 9.16537e+16 7971.39 466.266 212.645 6745.53 143.798 -2.25783 8.00074e+16 5.87901e+12 0 3.9213e+15 3.61559e+15 0 4.10355e+15 0 0 0 
284 1 24.655 8.69681e+16 5553.39 339.17 181.427 6995.52 105.948 -1.1165 7.82084e+16 0 0 2.41627e+15 2.30457e+15 0 4.03888e+15 0 0 0 
780 1 29.55 2.0847e+17 20794.5 1252.41 486.436 3396.46 428.11 0.852771 1.40191e+17 1.64612e+14 0 3.18642e+16 2.79841e+16 0 8.26588e+15 0 0 0 
1804 1 22.6233 1.59603e+17 20707.8 1066.34 428.634 4235.79 390.587 -2.21686 1.137e+17 4.7032e+13 0 2.07294e+16 1.86835e+16 0 6.44339e+15 0 0 0 
5196 1 24.2183 3.41711e+17 19269.7 1153.44 504.333 2165.87 299.447 1.42232 2.14302e+17 3.29224e+14 0 5.93309e+16 5.47453e+16 0 1.30044e+16 0 0 0 
9292 1 28.24 3.98456e+17 16883.8 1253.64 570.559 1747.13 341.307 4.9583 2.41698e+17 1.64612e+14 0 7.51807e+16 6.77967e+16 0 1.36158e+16 0 0 0 
13388 1 20.88 2.94609e+17 19597 1163.23 578.335 2378.44 340.41 -6.16681 1.84036e+17 2.82192e+14 0 5.38752e+16 4.56211e+16 0 1.07939e+16 0 0 0 
17484 1 24.0733 3.39665e+17 18549.6 1286.41 526.18 2147.42 363.988 8.07094 2.09857e+17 3.99772e+14 0 6.15885e+16 5.54273e+16 0 1.23929e+16 0 0 0 
5828 1 20.485 2.89035e+17 19023.1 1145.26 481.239 1939.74 223.246 -2.50044 1.73478e+17 3.05708e+14 0 5.5051e+16 4.86782e+16 0 1.15229e+16 0 0 0 
9924 1 24.8183 3.50177e+17 17491.8 1143.19 555.987 1736.77 232.071 -9.42761 2.11621e+17 2.58676e+14 0 6.5986e+16 6.07654e+16 0 1.15464e+16 0 0 0 
14020 1 18.8933 2.66578e+17 19430.1 1034.92 502.171 2041.1 252.517 2.28159 1.66917e+17 1.64612e+14 0 4.4704e+16 4.35752e+16 0 1.12171e+16 0 0 0 
18116 1 22.1717 3.12834e+17 18429.1 1150.17 547.678 1915.03 262.225 5.85422 1.91444e+17 1.41096e+14 0 5.7238e+16 5.26524e+16 0 1.13582e+16 0 0 0 
6340 1 28.8967 4.07721e+17 14949.8 1332.94 543.318 1287.53 257.769 -2.76119 2.42638e+17 2.11644e+14 0 7.9249e+16 7.09949e+16 0 1.4627e+16 0 0 0 
10436 1 36.005 5.08017e+17 13328.8 1290.58 586.931 1099 285.438 -1.68458 2.9943e+17 3.29224e+14 0 1.03141e+17 8.77853e+16 0 1.73313e+16 0 0 0 
14532 1 26.1883 3.69507e+17 16163.6 1162.94 562.514 1535.34 298.531 -4.7285 2.21004e+17 1.41096e+14 0 7.15357e+16 6.42928e+16 0 1.2534e+16 0 0 0 
18628 1 31.9317 4.50544e+17 14014.1 1268.16 557.178 1212.24 317.417 7.16591 2.69047e+17 3.29224e+14 0 8.67976e+16 7.84965e+16 0 1.58733e+16 0 0 0 
5892 1 45.77 6.45797e+17 10456.8 1234.67 589.859 736.815 294.693 -5.1553 3.80724e+17 2.3516e+14 0 1.28562e+17 1.11325e+17 0 2.49505e+16 0 0 0 
9988 1 59.4333 8.38581e+17 8719.95 1324.16 612.289 569.426 292.59 2.4486 4.97293e+17 7.76029e+14 0 1.76229e+17 1.36346e+17 0 2.7937e+16 0 0 0 
14084 1 39.0983 5.51662e+17 11992.7 1284.04 602.681 963.89 335.193 5.35883 3.26826e+17 3.29224e+14 0 1.08832e+17 9.40876e+16 0 2.15877e+16 0 0 0 
18180 1 48.5317 6.84763e+17 9587.2 1246.57 596.933 696.212 358.44 -1.90615 4.08027e+17 6.11417e+14 0 1.40273e+17 1.1283e+17 0 2.30222e+16 0 0 0 
4748 1 33.0683 4.66581e+17 14706.4 1338.83 613.956 1425.05 385.282 1.6247 2.82851e+17 3.5274e+14 0 8.84673e+16 7.80027e+16 0 1.6908e+16 0 0 0 
8844 1 39.8 5.61563e+17 12907.1 1316.35 587.09 1213.95 393 -1.74831 3.39595e+17 3.99772e+14 0 1.12289e+17 9.0325e+16 0 1.89539e+16 0 0 0 
12940 1 27.1717 3.83382e+17 16573.8 1321.09 577.371 1830.53 402.211 3.84001 2.36595e+17 2.82192e+14 0 7.09714e+16 6.16355e+16 0 1.3898e+16 0 0 0 
17036 1 31.2667 4.41161e+17 14771.1 1395.14 581.335 1570.92 439.799 -2.1372 2.69917e+17 2.58676e+14 0 8.47282e+16 6.98191e+16 0 1.64377e+16 0 0 0 
5772 1 21.6117 3.04932e+17 17818.2 1356.84 564.745 2139.13 444.818 6.31425 1.87658e+17 2.11644e+14 0 5.53097e+16 4.99951e+16 0 1.1758e+16 0 0 0 
9868 1 23.9517 3.37949e+17 16549.6 1367.86 601.283 1982.26 474.026 0.419543 2.09786e+17 3.99772e+14 0 6.45515e+16 5.20645e+16 0 1.11466e+16 0 0 0 
13964 1 18.0617 2.54843e+17 19623.6 1210.09 529.642 2537.89 439.969 -7.48418 1.65177e+17 1.64612e+14 0 4.37868e+16 3.70613e+16 0 8.6539e+15 0 0 0 
18060 1 19.1 2.69494e+17 18755.2 1365.11 556.258 2510.69 470.475 11.9085 1.72184e+17 4.7032e+14 0 4.62795e+16 4.01654e+16 0 1.03941e+16 0 0 0 
73 1 24.3383 8.58511e+16 6164.71 198.394 156.1 7008.5 11.4724 1.32791 7.79497e+16 0 0 1.72255e+15 2.33397e+15 0 3.84487e+15 0 0 0 
137 1 25.4267 8.96901e+16 8842.89 252.653 176.889 6762.93 24.89 0.780671 7.91961e+16 1.1758e+13 0 2.92775e+15 3.62147e+15 0 3.93306e+15 0 0 0 
201 1 23.8283 8.40522e+16 4952.87 173.089 155.694 7109.03 15.32 2.05431 7.67975e+16 5.87901e+12 0 1.43448e+15 1.92243e+15 0 3.8919e+15 0 0 0 
265 1 25.0667 8.84203e+16 7607.85 229.438 165.728 6877.08 28.7872 -0.466368 7.9008e+16 5.87901e+12 0 2.42215e+15 3.14527e+15 0 3.83899e+15 0 0 0 
81 1 23.6633 8.34701e+16 4332.81 185.673 151.317 7155.31 20.805 0.153031 7.67269e+16 1.1758e+13 0 1.35217e+15 1.70491e+15 0 3.67438e+15 0 0 0 
145 1 24.5467 8.6586e+16 6039.64 231.576 157.761 7009.07 29.1319 -1.88277 7.81614e+16 5.87901e+12 0 1.96359e+15 2.49858e+15 0 3.95657e+15 0 0 0 
209 1 23.5033 8.29057e+16 3599.85 170.048 146.266 7217.32 14.1011 -2.79841 7.65799e+16 0 0 1.09937e+15 1.39332e+15 0 3.83311e+15 0 0 0 
273 1 23.7067 8.3623e+16 4744.11 207.567 154.799 7116.28 29.0558 -3.892 7.66916e+16 0 0 1.37569e+15 1.77546e+15 0 3.7802e+15 0 0 0 
89 1 23.1117 8.15242e+16 2911.32 176.685 144.959 7268.06 16.4264 -2.14517 7.60567e+16 0 0 8.17182e+14 1.15816e+15 0 3.49213e+15 0 0 0 
153 1 23.4867 8.2847e+16 3621.46 190.35 148.335 7210.81 23.6679 1.82451 7.63271e+16 0 0 1.02295e+15 1.49327e+15 0 4.0036e+15 0 0 0 
217 1 22.91 8.08128e+16 2151.86 158.254 147.152 7322.62 14.7086 2.42269 7.56628e+16 0 0 5.64385e+14 9.23004e+14 0 3.66262e+15 0 0 0 
281 1 23.3167 8.22473e+16 2654.68 173.478 148.636 7283.8 21.198 -0.194429 7.63683e+16 0 0 8.8773e+14 1.13465e+15 0 3.85663e+15 0 0 0 
74 1 27.5583 9.72094e+16 12834.5 344.192 202.806 6341.97 44.3062 1.25407 8.22355e+16 2.3516e+13 0 4.83254e+15 5.78494e+15 0 4.33283e+15 0 0 0 
138 1 31.1383 1.09837e+17 17542.3 510.582 242.549 5712.68 78.8483 1.85444 8.78441e+16 6.46691e+13 0 8.34819e+15 8.77736e+15 0 4.80315e+15 0 0 0 
202 1 26.33 9.28765e+16 10701.1 338.26 191.297 6567.83 46.37 -1.45983 8.02308e+16 1.1758e+13 0 3.93306e+15 4.52683e+15 0 4.17409e+15 0 0 0 
266 1 28.7133 1.01284e+17 14359.8 461.431 237.025 6137.74 80.3069 -1.14944 8.43049e+16 1.7637e+13 0 6.15532e+15 6.46103e+15 0 4.34459e+15 0 0 0 
82 1 25.4683 8.98371e+16 8555.62 298.902 179.121 6778.98 46.628 -2.41433 7.95959e+16 5.87901e+12 0 2.88071e+15 3.36279e+15 0 3.99185e+15 0 0 0 
146 1 26.9833 9.51811e+16 11409.9 366.832 197.236 6478.49 75.2338 -0.154308 8.14595e+16 5.87901e+12 0 4.37398e+15 5.00891e+15 0 4.33283e+15 0 0 0 
210 1 24.7783 8.74032e+16 6388.73 236.265 168.431 6972.95 43.5619 -0.33109 7.8714e+16 1.7637e+13 0 2.01062e+15 2.6044e+15 0 4.05651e+15 0 0 0 
274 1 25.2 8.88906e+16 7989.83 315.056 183.322 6818.93 60.1319 -0.479259 7.86435e+16 0 0 3.03357e+15 3.20406e+15 0 4.00948e+15 0 0 0 
90 1 24.04 8.47988e+16 4491.15 223.363 155.227 7132.38 31.7749 0.516915 7.75382e+16 5.87901e+12 0 1.47563e+15 1.95183e+15 0 3.82723e+15 0 0 0 
154 1 24.2783 8.56395e+16 5501.42 251.606 163.81 7038.65 49.7244 -1.3524 7.76088e+16 0 0 1.82249e+15 2.381e+15 0 3.82723e+15 0 0 0 
218 1 23.33 8.22943e+16 3396.57 185.052 152.19 7223.67 31.8686 -3.07127 7.64859e+16 0 0 9.75915e+14 1.38157e+15 0 3.45098e+15 0 0 0 
282 1 23.7533 8.37876e+16 3926.97 225.982 154.619 7170.6 40.501 0.794792 7.7062e+16 5.87901e+12 0 1.23459e+15 1.61673e+15 0 3.86839e+15 0 0 0 
91 1 25.0317 8.82968e+16 6800.73 339.051 179.133 6913.07 71.3718 -1.88006 7.89727e+16 2.3516e+13 0 2.40451e+15 2.76901e+15 0 4.12706e+15 0 0 0 
219 1 24.0017 8.46636e+16 4512.22 260.358 161.841 7115.87 53.5651 0.611519 7.74265e+16 0 0 1.65788e+15 1.66964e+15 0 3.90954e+15 0 0 0 
75 1 37.465 1.32154e+17 21516.6 727.875 312.971 4864.53 132.187 0.855108 9.86027e+16 7.05481e+13 0 1.37569e+16 1.44094e+16 0 5.31462e+15 0 0 0 
203 1 32.5633 1.14864e+17 18137.2 583.829 285.163 5550.4 134.375 -1.51517 9.00781e+16 4.1153e+13 0 9.4358e+15 1.00649e+16 0 5.24407e+15 0 0 0 
83 1 28.6767 1.01154e+17 14212.7 451.087 225.601 6128.66 119.436 -0.696842 8.34349e+16 1.7637e+13 0 6.39636e+15 6.65503e+15 0 4.65029e+15 0 0 0 
211 1 26.4517 9.33057e+16 9798.62 389.814 195.352 6622.05 92.8703 -1.7757 8.09069e+16 0 0 3.78608e+15 4.57975e+15 0 4.033e+15 0 0 0 
1731 1 17.8833 1.26163e+17 22465.4 715.94 318.695 4630.52 90.7515 -17.5386 9.18771e+16 9.40641e+13 0 1.45682e+16 1.38157e+16 0 5.80846e+15 0 0 0 
2243 1 21.0483 1.48492e+17 23539.4 844.1 360.102 3943.16 118.256 2.01751 1.0213e+17 7.05481e+13 0 2.07411e+16 1.9483e+16 0 6.06713e+15 0 0 0 
155 1 25.5167 9.00076e+16 7949.5 395.842 190.819 6801.17 96.8239 3.17446 7.96311e+16 0 0 3.01005e+15 3.20406e+15 0 4.16234e+15 0 0 0 
283 1 24.135 8.51339e+16 4920.92 262.699 171.829 7078.27 67.8241 -3.54165 7.7162e+16 1.1758e+13 0 1.64024e+15 2.22226e+15 0 4.09767e+15 0 0 0 
267 1 38.1417 1.34541e+17 20938.9 809.728 332.697 4817.22 213.531 1.53721 9.92082e+16 4.1153e+13 0 1.48327e+16 1.47504e+16 0 5.70851e+15 0 0 0 
147 1 31.7333 1.11936e+17 16365.5 605.439 262.304 5784.63 174.599 -0.135007 8.98606e+16 1.7637e+13 0 8.4011e+15 8.58335e+15 0 5.07358e+15 0 0 0 
275 1 27.235 9.60688e+16 11366.1 490.328 220.221 6434.38 130.588 -0.277244 8.19357e+16 2.3516e+13 0 5.00891e+15 4.82078e+15 0 4.27992e+15 0 0 0 
651 1 24.7567 1.74654e+17 23272.1 907.481 380.798 3949.85 176.111 1.82937 1.22119e+17 4.7032e+13 0 2.25401e+16 2.3128e+16 0 6.81965e+15 0 0 0 
1163 1 29.7967 2.1021e+17 22775.8 1038.7 426.965 3275.53 228.528 6.9852 1.38944e+17 1.29338e+14 0 3.20523e+16 3.12528e+16 0 7.83084e+15 0 0 0 
1675 1 20.7483 1.46375e+17 22707.1 873.451 358.211 4239.99 202.305 -0.557571 1.03717e+17 4.7032e+13 0 1.88716e+16 1.7637e+16 0 6.10241e+15 0 0 0 
2187 1 24.19 1.70656e+17 22847.7 984.922 422.444 3621.62 257.096 3.30382 1.14923e+17 1.05822e+14 0 2.51504e+16 2.34572e+16 0 7.01953e+15 0 0 0 
1795 1 25.24 1.78063e+17 23275.3 983.615 408.04 3298.08 152.552 0.924127 1.16745e+17 1.29338e+14 0 2.7208e+16 2.62086e+16 0 7.77205e+15 0 0 0 
2307 1 32.3183 2.28e+17 21449.1 1045.15 477.716 2584.69 201.097 3.34751 1.44106e+17 9.40641e+13 0 3.8096e+16 3.66732e+16 0 9.03015e+15 0 0 0 
1292 2 30.945 2.18311e+17 19765.4 1404.9 508.951 3421.18 481.846 -0.466911 1.45505e+17 1.1758e+14 0 3.44627e+16 2.95949e+16 0 8.63038e+15 0 0 0 
2316 2 22.5367 1.58992e+17 19631.2 1311.64 470.416 4260.78 438.468 -1.34178 1.11572e+17 1.05822e+14 0 2.17641e+16 1.91538e+16 0 6.39636e+15 0 0 0 
5252 2 182.79 2.5791e+18 7549.01 1588.47 695.223 541.082 63.1711 11.672 1.50107e+18 1.66964e+15 0 5.38258e+17 4.60514e+17 0 7.75794e+16 0 0 0 
13444 2 162.373 2.29103e+18 5079.08 1331.26 645.672 192.621 117.307 -2.31384 1.35441e+18 1.43448e+15 0 4.81608e+17 3.83499e+17 0 7.00778e+16 0 0 0 
17540 2 344.405 4.85942e+18 2549.74 1119.26 594.864 21.5105 109.929 2.01902 3.04899e+18 3.85663e+15 0 9.61076e+17 6.96168e+17 0 1.49327e+17 0 0 0 
6276 2 140.293 1.97948e+18 4135.01 1224.06 621.653 77.2046 147.064 3.25414 1.17129e+18 1.15229e+15 0 4.16069e+17 3.24168e+17 0 6.6809e+16 0 0 0 
10372 2 243.227 3.43183e+18 2488.38 1066.32 580.974 1.60685 127.998 1.00598 2.14019e+18 2.13996e+15 0 6.89302e+17 4.88757e+17 0 1.11442e+17 0 0 0 
14468 2 123.97 1.74917e+18 4275.28 1185.54 605.381 90.6379 163.235 3.31556 1.0356e+18 1.85777e+15 0 3.69625e+17 2.83674e+17 0 5.84138e+16 0 0 0 
18564 2 199.922 2.82082e+18 2799.06 1047.7 579.555 24.2829 122.01 -3.57518 1.73372e+18 1.29338e+15 0 5.8616e+17 4.08285e+17 0 9.13598e+16 0 0 0 
5260 2 47.6 6.71618e+17 11224.9 1381.64 616.043 1031.97 431.279 2.83269 4.07109e+17 3.99772e+14 0 1.30255e+17 1.09655e+17 0 2.4198e+16 0 0 0 
9356 2 55.94 7.89292e+17 9412.12 1375.61 621.911 869.444 451.705 3.15889 4.85394e+17 7.28997e+14 0 1.56405e+17 1.20261e+17 0 2.65026e+16 0 0 0 
13452 2 34.8033 4.91062e+17 13670.2 1421.89 603.56 1479.17 468.885 -3.89143 3.01781e+17 2.82192e+14 0 9.3194e+16 7.76499e+16 0 1.81544e+16 0 0 0 
17548 2 38.1217 5.37882e+17 12526.7 1446.59 609.236 1414.08 516.645 -7.50295 3.28307e+17 4.23288e+14 0 1.07539e+17 8.12479e+16 0 2.03649e+16 0 0 0 
6284 2 25.925 3.65792e+17 16185.8 1425.89 566.055 1988.48 501.556 -14.5727 2.25895e+17 2.58676e+14 0 6.96309e+16 5.6556e+16 0 1.34512e+16 0 0 0 
10380 2 27.3117 3.85357e+17 14620.9 1490.37 610.521 1840.36 554.82 3.89953 2.37488e+17 3.5274e+14 0 7.21236e+16 6.11417e+16 0 1.42507e+16 0 0 0 
14476 2 20.6067 2.90752e+17 17781 1535.08 555.165 2429.62 511.289 4.925 1.86976e+17 1.1758e+14 0 5.09827e+16 4.40925e+16 0 8.58335e+15 0 0 0 
18572 2 20.8567 2.9428e+17 17437.8 1453.5 592.9 2505.53 551.443 2.7042 1.90503e+17 3.05708e+14 0 4.94072e+16 4.30108e+16 0 1.10525e+16 0 0 0 
5380 2 112.788 1.5914e+18 5756.45 1280.39 616.515 275.414 181.759 2.3583 9.42264e+17 1.26987e+15 0 3.31694e+17 2.64532e+17 0 5.16412e+16 0 0 0 
9476 2 178.875 2.52386e+18 3666.52 1151.21 593.777 120.64 147.762 -0.511088 1.55843e+18 2.28105e+15 0 4.99739e+17 3.8611e+17 0 7.72972e+16 0 0 0 
13572 2 98.285 1.38676e+18 6021.7 1273.1 611.43 297.309 232.588 -2.89372 8.19651e+17 7.99545e+14 0 2.88683e+17 2.30222e+17 0 4.74083e+16 0 0 0 
17668 2 153.293 2.16291e+18 4079.87 1134.53 605.526 144.544 196.205 4.23813 1.32292e+18 1.05822e+15 0 4.37962e+17 3.3642e+17 0 6.45515e+16 0 0 0 
6404 2 80.4667 1.13535e+18 6582.76 1283.63 608.784 363.274 296.215 1.07713 6.79942e+17 9.64157e+14 0 2.36477e+17 1.82014e+17 0 3.5956e+16 0 0 0 
10500 2 119.718 1.68918e+18 4592.55 1183.34 604.84 194.041 266.904 -1.83074 1.02259e+18 1.26987e+15 0 3.47826e+17 2.66742e+17 0 5.07476e+16 0 0 0 
14596 2 63.8 9.00193e+17 8349.05 1233.51 603.159 595.01 361.484 0.0880055 5.45619e+17 8.23061e+14 0 1.76206e+17 1.46599e+17 0 3.09471e+16 0 0 0 
18692 2 84.8733 1.19753e+18 6113.6 1242.78 609.916 383.399 348.434 0.0623432 7.33488e+17 1.10525e+15 0 2.42403e+17 1.79615e+17 0 4.09179e+16 0 0 0 
8 3 8.92167 1.57352e+16 8165.84 3394.7 951.644 4834.6 -186.417 -13.2668 9.43874e+15 1.1758e+13 0 3.08354e+15 2.6044e+15 0 5.96719e+14 0 0 0 
7 3 7.83 1.38098e+16 8864.75 3749.7 1003.13 4351.34 -314.698 9.21142 7.92784e+15 5.87901e+12 0 2.98066e+15 2.36924e+15 0 5.26171e+14 0 0 0 
80 3 24.84 8.76207e+16 4973.67 1455.83 448.746 6474.59 25.2563 -2.99388 6.59566e+16 4.1153e+13 0 9.64157e+15 8.86554e+15 0 3.11587e+15 0 0 0 
144 3 24.3917 8.60393e+16 4772.31 1433.42 432.204 6538.24 14.1167 -8.8283 6.57978e+16 6.46691e+13 0 8.97136e+15 8.00133e+15 0 3.20406e+15 0 0 0 
208 3 28.44 1.00319e+17 4719.2 1314.64 402.819 6601.08 116.406 -1.65752 7.85847e+16 2.3516e+13 0 9.90613e+15 8.10715e+15 0 3.69789e+15 0 0 0 
272 3 27.6583 9.75621e+16 4328.54 1196.16 400.626 6677.78 104.466 0.957642 7.69503e+16 4.1153e+13 0 8.78324e+15 7.97193e+15 0 3.81547e+15 0 0 0 
88 3 27.2533 9.61335e+16 3992.69 1048.46 329.938 6841.62 140.786 -1.78144 8.00544e+16 4.1153e+13 0 6.608e+15 5.50275e+15 0 3.92718e+15 0 0 0 
152 3 26.685 9.41288e+16 3703.03 966 317.31 6876.86 128.755 -3.11806 7.88198e+16 2.3516e+13 0 6.01422e+15 5.44396e+15 0 3.82723e+15 0 0 0 
216 3 25.6817 9.05896e+16 3318.6 817.699 280.667 7017.63 128.688 2.31113 7.87023e+16 1.1758e+13 0 4.36222e+15 3.54504e+15 0 3.96833e+15 0 0 0 
280 3 25.845 9.11657e+16 3125.93 811.467 284.984 7023.16 130.101 -0.65334 7.91138e+16 2.9395e+13 0 4.43277e+15 3.70965e+15 0 3.88014e+15 0 0 0 
96 3 24.915 8.78853e+16 2789.28 625.841 240.788 7125.35 116.597 0.409847 7.8085e+16 1.7637e+13 0 3.07472e+15 2.52797e+15 0 4.17997e+15 0 0 0 
160 3 25.1033 8.85496e+16 2652.35 620.156 243.316 7129.62 117.243 2.2563 7.91608e+16 1.1758e+13 0 2.92775e+15 2.58088e+15 0 3.86839e+15 0 0 0 
224 3 24.1067 8.50339e+16 2365.58 542.339 212.057 7207.53 109.713 0.114274 7.745e+16 1.1758e+13 0 2.06941e+15 1.62848e+15 0 3.87427e+15 0 0 0 
288 3 24.2117 8.54043e+16 2193.43 505.454 206.016 7222.21 107.04 -1.466 7.79556e+16 5.87901e+12 0 1.91656e+15 1.65788e+15 0 3.86839e+15 0 0 0 
79 3 27.6917 9.76797e+16 5729.2 1682.67 520.573 6266.86 45.1548 4.90665 6.98955e+16 3.5274e+13 0 1.25399e+16 1.14699e+16 0 3.73905e+15 0 0 0 
143 3 26.4383 9.32587e+16 5381.45 1685.75 476.256 6377.41 28.1124 1.55527 6.83905e+16 1.1758e+13 0 1.12642e+16 1.00825e+16 0 3.50977e+15 0 0 0 
207 3 30.1183 1.0624e+17 5462.31 1493.18 439.919 6484.91 151.108 -10.0536 8.23884e+16 4.7032e+13 0 1.03118e+16 9.56514e+15 0 3.92718e+15 0 0 0 
271 3 29.2267 1.03094e+17 4960.06 1367.37 442.763 6557.4 126.407 -2.23826 8.03778e+16 7.05481e+13 0 1.00472e+16 9.07131e+15 0 3.5274e+15 0 0 0 
87 3 28.0533 9.89554e+16 4890.28 1167.32 357.127 6748.13 177.603 0.525016 8.22826e+16 0 0 7.01365e+15 5.82022e+15 0 3.83899e+15 0 0 0 
151 3 27.4367 9.67802e+16 4333.48 1065.95 343.192 6805.41 154.928 0.658847 8.02955e+16 1.7637e+13 0 6.73734e+15 5.8261e+15 0 3.90366e+15 0 0 0 
215 3 26.3133 9.28177e+16 4269.51 827.04 282.048 6919.41 162.657 2.6018 7.99662e+16 1.1758e+13 0 4.62678e+15 3.99185e+15 0 4.22113e+15 0 0 0 
279 3 26.2117 9.24591e+16 3761.54 833.595 267.46 6971.05 150.303 1.19025 8.04718e+16 2.9395e+13 0 4.33283e+15 3.80372e+15 0 3.82135e+15 0 0 0 
95 3 25.1883 8.88494e+16 3630.59 623.591 223.406 7068.09 146.47 -1.31928 7.93078e+16 1.7637e+13 0 2.93362e+15 2.78077e+15 0 3.8096e+15 0 0 0 
159 3 24.95 8.80087e+16 3224.16 611.792 248.211 7089.97 134.322 3.82489 7.85376e+16 4.1153e+13 0 2.88071e+15 2.70434e+15 0 3.84487e+15 0 0 0 
223 3 24.22 8.54337e+16 3034.24 495.41 201.389 7160.77 121.465 5.92056 7.76205e+16 5.87901e+12 0 2.14584e+15 1.75194e+15 0 3.90954e+15 0 0 0 
287 3 24.2633 8.55866e+16 2654.03 540.289 202.276 7183.19 116.068 2.11846 7.7791e+16 1.1758e+13 0 2.1576e+15 1.9048e+15 0 3.72141e+15 0 0 0 
142 3 30.325 1.06969e+17 6338.52 1830.26 547.264 6124.72 55.2971 -0.135318 7.56334e+16 2.9395e+13 0 1.45858e+16 1.31396e+16 0 3.58031e+15 0 0 0 
270 3 31.2717 1.10308e+17 6286.08 1634.24 459.395 6371.82 186.542 8.48457 8.42462e+16 2.3516e+13 0 1.18697e+16 9.61805e+15 0 4.55035e+15 0 0 0 
150 3 28.5367 1.0066e+17 6022.81 1187.13 369.707 6620.75 216.009 -1.09613 8.27823e+16 3.5274e+13 0 7.63683e+15 6.20235e+15 0 4.0036e+15 0 0 0 
278 3 26.885 9.48342e+16 5234.32 884.595 286.55 6833.4 198.921 -1.25832 8.12714e+16 5.87901e+12 0 5.02655e+15 4.30343e+15 0 4.22701e+15 0 0 0 
158 3 25.3333 8.93609e+16 4284.73 628.061 230.76 7008.63 151.457 4.61055 7.89198e+16 1.1758e+13 0 3.45686e+15 3.07472e+15 0 3.89778e+15 0 0 0 
286 3 24.185 8.53103e+16 3542.38 478.546 211.79 7119.49 130.712 3.44422 7.73618e+16 2.3516e+13 0 2.20463e+15 1.98123e+15 0 3.73905e+15 0 0 0 
5 3 162.285 2.7754e+18 2975.14 1019.11 573.917 113.046 186.337 0.572535 1.78896e+18 2.13775e+15 0 5.26856e+17 3.69888e+17 0 8.75623e+16 0 0 0 
5 3 2.10667 1.49509e+16 9060.94 2919.37 976.914 2592.52 -697.63 -62.551 8.36258e+15 1.18283e+13 0 3.27643e+15 2.54308e+15 0 7.57009e+14 0 0 0 
149 3 31.8533 1.1236e+17 10469.5 1229.9 377.762 6149.06 298.997 2.65489 8.93785e+16 1.7637e+13 0 9.91788e+15 8.28352e+15 0 4.76199e+15 0 0 0 
277 3 27.6967 9.76973e+16 8473.44 858.786 297.321 6535.34 237.221 -2.18977 8.22649e+16 1.7637e+13 0 6.00834e+15 5.36165e+15 0 4.04476e+15 0 0 0 
157 3 25.97 9.16067e+16 6303.97 663.345 239.235 6844.07 171.773 3.24429 8.04366e+16 1.7637e+13 0 4.13882e+15 3.22757e+15 0 3.78608e+15 0 0 0 
285 3 24.8783 8.77559e+16 4629.69 427.736 197.199 7044.73 124.012 -2.04623 7.88551e+16 1.7637e+13 0 2.55149e+15 2.32809e+15 0 4.0036e+15 0 0 0 