ITEM: TIMESTEP
18000
ITEM: NUMBER OF CELLS
240
ITEM: BOX BOUNDS oo ao pp
-10 10
0 10
-0.5 0.5
ITEM: CELLS id proc f_avg_n f_avg_nrho f_avg_temp_tra f_avg_temp_rot f_avg_temp_vib f_avg_vel[1] f_avg_vel[2] f_avg_vel[3] f_avg_nrho_CO2 f_avg_nrho_O2 f_avg_nrho_C2 f_avg_nrho_CO f_avg_nrho_O f_avg_nrho_C f_avg_nrho_N2 f_avg_nrho_N f_avg_nrho_NO f_avg_nrho_CN 
65 0 24.722 8.72045e+16 6292.62 188.509 155.073 7002.3 8.67254 -0.0201081 7.87528e+16 0 0 2.00357e+15 2.42685e+15 0 4.02124e+15 0 0 0 
129 0 26.238 9.2552e+16 9366.26 270.955 186.213 6711.55 26.1697 0.870364 8.06435e+16 1.41096e+13 0 3.16055e+15 4.02124e+15 0 4.71261e+15 0 0 0 
193 0 24.424 8.61533e+16 6329.15 193.968 154.938 6997.2 8.71869 -1.32781 7.77722e+16 0 0 1.89069e+15 2.56795e+15 0 3.92247e+15 0 0 0 
257 0 25.702 9.06613e+16 9730.84 247.069 173.024 6683.54 13.5533 0.74954 7.90209e+16 2.11644e+13 0 3.53446e+15 3.94364e+15 0 4.14117e+15 0 0 0 
66 0 29.344 1.03508e+17 13604.5 395.937 210.901 6260.08 31.1008 1.89017 8.6506e+16 2.82192e+13 0 5.60857e+15 6.77262e+15 0 4.59268e+15 0 0 0 
130 0 34.294 1.20969e+17 18878.7 549.604 271.475 5496.9 36.8782 -2.38624 9.42099e+16 2.11644e+13 0 9.912e+15 1.11889e+16 0 5.63679e+15 0 0 0 
194 0 28.522 1.00609e+17 14248.3 423.775 214.451 6187.23 30.7801 0.665259 8.43473e+16 1.41096e+13 0 5.53097e+15 6.37755e+15 0 4.33871e+15 0 0 0 
258 0 33.03 1.1651e+17 19124.2 551.261 261.632 5453.04 58.4843 1.37989 9.08236e+16 2.82192e+13 0 9.84851e+15 1.08715e+16 0 4.93837e+15 0 0 0 
579 0 29.474 2.07933e+17 16045.2 541.717 245.947 5893.54 62.6543 -10.6747 1.68215e+17 7.05481e+13 0 1.50832e+16 1.53936e+16 0 9.17125e+15 0 0 0 
1091 0 32.628 2.30184e+17 18613.7 713.671 297.917 5433.64 69.5863 -5.28939 1.75735e+17 4.23288e+13 0 2.13761e+16 2.29987e+16 0 1.00319e+16 0 0 0 
1603 0 17.918 1.26408e+17 23973.8 658.064 350.933 3915.49 32.21 -6.47869 8.70704e+16 4.23288e+13 0 1.57604e+16 1.75806e+16 0 5.95426e+15 0 0 0 
2115 0 21.294 1.50225e+17 23505.6 1033.75 413.589 3338.75 39.2114 1.69057 9.90354e+16 2.82192e+13 0 2.23355e+16 2.26036e+16 0 6.22234e+15 0 0 0 
707 0 21.79 1.53724e+17 21429.8 744.009 329.265 4889.71 58.6893 0.246523 1.1323e+17 5.64385e+13 0 1.60426e+16 1.72419e+16 0 7.15357e+15 0 0 0 
1219 0 24.732 1.74479e+17 23265.6 834.778 364.924 4211.09 84.2558 1.85234 1.23346e+17 9.87673e+13 0 2.17711e+16 2.27588e+16 0 6.50453e+15 0 0 0 
643 0 37.994 2.6804e+17 21694.7 959.198 340.738 4657.32 52.7359 11.4067 1.93245e+17 5.64385e+13 0 3.26496e+16 3.26214e+16 0 9.46755e+15 0 0 0 
1667 0 27.86 1.96547e+17 21870.9 987.754 435.835 2533.56 78.4671 -9.13483 1.23064e+17 9.87673e+13 0 3.24239e+16 3.3595e+16 0 7.36522e+15 0 0 0 
2179 0 37.052 2.61395e+17 18959.1 1137.41 533.401 1883.14 88.1895 7.12129 1.56518e+17 1.41096e+14 0 4.80856e+16 4.72813e+16 0 9.36878e+15 0 0 0 
771 0 29.728 2.09725e+17 23321.3 969.694 413.663 3461.12 116.027 -1.57588 1.39756e+17 8.46577e+13 0 2.89811e+16 3.18172e+16 0 9.08659e+15 0 0 0 
1283 0 38.362 2.70637e+17 21671 1093.55 477.962 2614.05 141.093 -1.86799 1.70021e+17 2.53973e+14 0 4.63078e+16 4.39091e+16 0 1.01448e+16 0 0 0 
5251 0 29.538 4.1677e+17 18399.7 872.924 338.367 5327.84 84.5884 3.73992 3.1233e+17 1.12877e+14 0 4.06075e+16 4.83395e+16 0 1.53795e+16 0 0 0 
9347 0 31.862 4.49561e+17 19905.8 1152.74 413.316 4848.86 54.3753 11.6908 3.19667e+17 7.90138e+14 0 6.11793e+16 5.17823e+16 0 1.61414e+16 0 0 0 
13443 0 19.676 2.77621e+17 22606.6 1222 443.382 3397.43 58.7822 6.88989 1.77217e+17 1.97535e+14 0 4.57152e+16 4.36551e+16 0 1.08362e+16 0 0 0 
17539 0 22.43 3.16479e+17 21828 1264.69 468.943 2919.47 68.2929 -1.65411 1.97309e+17 6.20823e+14 0 5.23467e+16 5.10486e+16 0 1.51537e+16 0 0 0 
4676 0 34.24 4.83113e+17 21503.5 1191.07 460.533 4113.89 62.3686 -6.03094 3.17805e+17 1.12877e+14 0 7.35393e+16 7.16486e+16 0 2.00074e+16 0 0 0 
8772 0 41.188 5.81147e+17 21573.3 1346.63 497.07 3938.11 66.8847 10.0141 3.77122e+17 2.25754e+14 0 9.05555e+16 9.39136e+16 0 1.93302e+16 0 0 0 
12868 0 27.122 3.82681e+17 20788.4 1282.1 510.673 2561.57 72.8824 9.77989 2.34897e+17 1.97535e+14 0 6.75004e+16 6.46785e+16 0 1.54077e+16 0 0 0 
16964 0 31.74 4.47839e+17 19124.5 1336.98 576.601 2123.65 76.6264 5.48926 2.64217e+17 1.69315e+14 0 8.65202e+16 8.15818e+16 0 1.53513e+16 0 0 0 
5188 0 46.396 6.5463e+17 21258.1 1485.54 539.791 3175.33 51.7472 -7.09869 4.13722e+17 6.49042e+14 0 1.11353e+17 1.03423e+17 0 2.5482e+16 0 0 0 
9284 0 58.18 8.20897e+17 19086.6 1516.76 605.251 2446.01 46.5594 0.163731 4.89547e+17 5.36165e+14 0 1.54359e+17 1.48772e+17 0 2.76831e+16 0 0 0 
13380 0 40.046 5.65034e+17 16638.3 1381.84 573.9 1641 66.1427 4.14284 3.26271e+17 5.64385e+14 0 1.11805e+17 1.03649e+17 0 2.27447e+16 0 0 0 
17476 0 50.962 7.19054e+17 14111.6 1544.32 642.232 1268.52 65.4081 0.50924 4.03507e+17 5.36165e+14 0 1.51481e+17 1.37682e+17 0 2.58488e+16 0 0 0 
5700 0 24.446 3.44924e+17 16585.8 1274.46 567.95 1528.42 93.8752 -3.95755 2.02078e+17 2.25754e+14 0 6.75851e+16 6.22234e+16 0 1.28115e+16 0 0 0 
9796 0 30.256 4.26901e+17 14202.2 1237.1 575.086 1110.37 101.242 -0.632517 2.46213e+17 2.53973e+14 0 8.52221e+16 8.01426e+16 0 1.50691e+16 0 0 0 
13892 0 24.234 3.41932e+17 16535.8 1185.14 541.793 1471.32 95.9784 11.711 2.00667e+17 1.69315e+14 0 6.57508e+16 6.12357e+16 0 1.41096e+16 0 0 0 
17988 0 28.964 4.08671e+17 14304.9 1205.47 577.361 1129.53 126.158 -1.99855 2.33345e+17 3.10412e+14 0 8.12996e+16 7.82801e+16 0 1.54359e+16 0 0 0 
6212 0 37.718 5.32186e+17 12068.3 1291.55 589.725 825.93 100.914 3.07675 3.05247e+17 5.36165e+14 0 1.10281e+17 9.67073e+16 0 1.94148e+16 0 0 0 
10308 0 48.932 6.90412e+17 9238.69 1274.66 646.616 509.757 113.759 -2.92603 3.91119e+17 1.04411e+15 0 1.49703e+17 1.27043e+17 0 2.15031e+16 0 0 0 
14404 0 36.504 5.15057e+17 12033.7 1189.3 586.517 851.128 140.197 -12.4624 2.94609e+17 2.53973e+14 0 1.05314e+17 9.55785e+16 0 1.9302e+16 0 0 0 
18500 0 46.696 6.58863e+17 9736.91 1251.55 586.405 562.214 154.881 3.07095 3.79633e+17 5.07946e+14 0 1.3613e+17 1.19396e+17 0 2.31962e+16 0 0 0 
4804 0 24.538 3.46222e+17 19224.5 1213.22 544.791 2052.87 141.86 1.01911 2.11052e+17 1.97535e+14 0 6.16308e+16 6.06713e+16 0 1.26704e+16 0 0 0 
8900 0 29.596 4.17588e+17 17609.2 1289.2 555.899 1723.62 165.083 -8.28483 2.507e+17 2.82192e+14 0 7.97475e+16 7.20155e+16 0 1.48433e+16 0 0 0 
12996 0 22.824 3.22038e+17 19476.5 1281.35 525.342 2129.23 177.973 -4.89477 1.97111e+17 1.41096e+14 0 5.79905e+16 5.49428e+16 0 1.18521e+16 0 0 0 
17092 0 26.982 3.80706e+17 17834.5 1220.94 544.484 1791.41 186.947 2.92086 2.28011e+17 1.69315e+14 0 7.22694e+16 6.63434e+16 0 1.39121e+16 0 0 0 
5316 0 35.088 4.95078e+17 14614.6 1293.57 573.923 1215.66 169.788 -2.34532 2.95907e+17 3.6685e+14 0 9.50988e+16 8.63791e+16 0 1.73266e+16 0 0 0 
9412 0 45.706 6.44894e+17 13020 1250.87 591.832 1045.62 185.489 5.51977 3.76078e+17 3.6685e+14 0 1.27212e+17 1.17336e+17 0 2.39017e+16 0 0 0 
13508 0 33.21 4.6858e+17 16233.9 1269.45 565.641 1534.1 219.569 -7.32975 2.78721e+17 2.82192e+14 0 8.99347e+16 8.18075e+16 0 1.78346e+16 0 0 0 
17604 0 40.672 5.73866e+17 13324.8 1319.8 596.325 1120.75 237.049 5.48222 3.37474e+17 5.36165e+14 0 1.15134e+17 1.00771e+17 0 1.9951e+16 0 0 0 
4868 0 58.174 8.20813e+17 9869.95 1335.01 605.207 654.212 195.491 -1.89655 4.74309e+17 4.79727e+14 0 1.76314e+17 1.42394e+17 0 2.73162e+16 0 0 0 
8964 0 78.662 1.10989e+18 7680.47 1276.82 618.399 441.396 201.088 2.96354 6.34876e+17 7.337e+14 0 2.36167e+17 1.97337e+17 2.82192e+13 4.07486e+16 0 0 0 
13060 0 52.246 7.37171e+17 10462.7 1289.06 606.143 754.915 247.175 -1.97738 4.29751e+17 4.79727e+14 0 1.50324e+17 1.31473e+17 0 2.51433e+16 0 0 0 
17156 0 67.978 9.59143e+17 8269.25 1283.22 622.124 500.589 244.937 -2.28124 5.67658e+17 7.05481e+14 0 1.97506e+17 1.62684e+17 0 3.05896e+16 0 0 0 
4740 0 74.048 1.04479e+18 16369.1 1652.89 646.592 1844.93 50.2239 -7.27698 6.0169e+17 7.337e+14 0 2.16639e+17 1.98522e+17 0 2.72033e+16 0 0 0 
8836 0 106.948 1.509e+18 12386 1802.51 683.874 1181.09 57.6901 7.30452 8.56313e+17 7.90138e+14 0 3.18877e+17 2.82503e+17 0 5.05124e+16 0 0 0 
12932 0 67.942 9.58635e+17 11078.1 1438.05 664.527 817.322 78.5645 -5.8833 5.47651e+17 1.77781e+15 0 1.99961e+17 1.75806e+17 0 3.34398e+16 0 0 0 
17028 0 98.918 1.39569e+18 7981.44 1446.45 637.662 473.448 98.7309 2.09532 7.94597e+17 1.21343e+15 0 3.0203e+17 2.5276e+17 0 4.50943e+16 0 0 0 
5764 0 65 9.17125e+17 7755.75 1277.43 638.677 359.688 127.405 -3.85967 5.15678e+17 9.31235e+14 0 1.98184e+17 1.71093e+17 0 3.12387e+16 0 0 0 
9860 0 92.258 1.30172e+18 5520.55 1269.45 619.594 149.208 135.168 -4.44975 7.51788e+17 8.74796e+14 0 2.77197e+17 2.2787e+17 0 4.39938e+16 0 0 0 
13956 0 61.964 8.74288e+17 7851.24 1312.15 623.806 380.324 153.212 -4.85751 5.06027e+17 8.18358e+14 0 1.82183e+17 1.56335e+17 0 2.89247e+16 0 0 0 
18052 0 84.764 1.19599e+18 5668.83 1208.34 606.979 172.521 166.528 -2.51492 7.01333e+17 9.59454e+14 0 2.48781e+17 2.04561e+17 0 4.03535e+16 0 0 0 
84 1 33.738 1.19008e+17 17678.7 765.208 319.96 5456.09 245.704 -4.00579 9.29189e+16 1.41096e+13 0 1.05893e+16 1.03423e+16 0 5.14295e+15 0 0 0 
212 1 28.392 1.0015e+17 12287.1 573.227 238.684 6282.06 167.663 -0.546618 8.42697e+16 2.11644e+13 0 5.67207e+15 5.97542e+15 0 4.21172e+15 0 0 0 
92 1 26.138 9.21993e+16 8490.62 486.316 214.057 6713.86 128.347 -0.958914 8.06082e+16 0 0 3.71083e+15 3.71083e+15 0 4.16939e+15 0 0 0 
220 1 24.596 8.676e+16 5193.81 297.349 175.883 7036.31 81.2984 -0.584659 7.85623e+16 0 0 2.1235e+15 2.34925e+15 0 3.72494e+15 0 0 0 
588 1 37.166 2.62199e+17 21263.4 1100.83 478.406 2700.95 276.637 3.07389 1.68088e+17 9.87673e+13 0 4.32883e+16 4.04523e+16 0 1.02718e+16 0 0 0 
1612 1 28.71 2.02544e+17 22072 1032.73 447.364 3148.51 308.313 5.49592 1.32898e+17 5.64385e+13 0 3.1535e+16 3.00112e+16 0 8.04248e+15 0 0 0 
2124 1 34.124 2.40738e+17 20234.8 1269.67 506.257 2608.94 390.31 -0.922203 1.54049e+17 7.05481e+13 0 3.99866e+16 3.72353e+16 0 9.397e+15 0 0 0 
716 1 24.328 1.71629e+17 22394.8 951.525 386.891 3973.48 297.608 3.90662 1.20228e+17 9.87673e+13 0 2.31257e+16 2.14466e+16 0 6.73029e+15 0 0 0 
1228 1 27.15 1.91538e+17 21866.1 1114.73 441.635 3701.96 357.565 5.21066 1.31473e+17 1.97535e+14 0 2.77113e+16 2.47483e+16 0 7.40755e+15 0 0 0 
1740 1 19.656 1.38669e+17 21438 953.792 402.121 4542.53 287.306 -7.28721 1.01109e+17 1.41096e+13 0 1.62684e+16 1.51678e+16 0 6.10946e+15 0 0 0 
2252 1 20.848 1.47079e+17 21499.5 1044.81 400.461 4296.96 349.083 0.847479 1.05258e+17 7.05481e+13 0 1.80039e+16 1.76088e+16 0 6.13768e+15 0 0 0 
148 1 35.096 1.23798e+17 17180.5 941.283 346.305 5369.04 310.995 1.77248 9.53104e+16 2.82192e+13 0 1.20567e+16 1.11537e+16 0 5.24878e+15 0 0 0 
276 1 28.914 1.01991e+17 11985.9 725.039 268.634 6255.72 217.494 1.69435 8.44743e+16 4.23288e+13 0 6.57508e+15 6.29994e+15 0 4.59973e+15 0 0 0 
156 1 25.93 9.14656e+16 7815.04 480.267 213.462 6758.91 139.934 -0.76906 7.9938e+16 7.05481e+12 0 3.83782e+15 3.54857e+15 0 4.13412e+15 0 0 0 
284 1 24.736 8.72539e+16 5635.03 336.923 184.927 6987.26 107.745 -2.28535 7.84777e+16 0 0 2.44802e+15 2.32809e+15 0 4.00008e+15 0 0 0 
780 1 29.29 2.06635e+17 20846.9 1201.36 489.362 3395.08 426.545 0.273746 1.39671e+17 1.41096e+14 0 3.1154e+16 2.74855e+16 0 8.18358e+15 0 0 0 
1804 1 22.578 1.59283e+17 20789.9 1063.05 421.855 4209.71 387.698 -2.40798 1.13611e+17 4.23288e+13 0 2.05295e+16 1.85259e+16 0 6.57508e+15 0 0 0 
5196 1 24.226 3.4182e+17 19203.8 1159.67 510.464 2166.29 301.64 -1.66647 2.12886e+17 3.10412e+14 0 6.02198e+16 5.49428e+16 0 1.34606e+16 0 0 0 
9292 1 28.374 4.00346e+17 16961.2 1236.98 568.089 1756.45 340.171 1.5676 2.43193e+17 1.41096e+14 0 7.49221e+16 6.84599e+16 0 1.36299e+16 0 0 0 
13388 1 21.084 2.97487e+17 19565.3 1189.75 579.394 2411.57 337.039 -8.80217 1.84921e+17 1.69315e+14 0 5.49428e+16 4.69568e+16 0 1.04976e+16 0 0 0 
17484 1 23.952 3.37953e+17 18490.8 1320.52 519.334 2131.23 368.128 9.20717 2.09189e+17 3.6685e+14 0 6.01916e+16 5.5987e+16 0 1.22189e+16 0 0 0 
5828 1 20.524 2.89586e+17 19268 1131.65 479.622 1995.29 224.822 3.2474 1.74113e+17 3.38631e+14 0 5.48864e+16 4.91861e+16 0 1.10619e+16 0 0 0 
9924 1 24.866 3.5085e+17 17433.4 1142.2 544.847 1730.13 229.655 -5.55319 2.11362e+17 2.82192e+14 0 6.6287e+16 6.18283e+16 0 1.10902e+16 0 0 0 
14020 1 18.95 2.67377e+17 19537.6 1056.47 499.053 2049.22 247.783 0.930493 1.68723e+17 1.41096e+14 0 4.42195e+16 4.27521e+16 0 1.15417e+16 0 0 0 
18116 1 22.224 3.13572e+17 18367.9 1184.19 561.705 1904.7 261.24 3.1244 1.91834e+17 1.41096e+14 0 5.79341e+16 5.21491e+16 0 1.15134e+16 0 0 0 
6340 1 28.83 4.0678e+17 14794.7 1271.08 542.466 1269.1 261.862 -1.14073 2.41105e+17 2.53973e+14 0 7.89856e+16 7.22412e+16 0 1.41943e+16 0 0 0 
10436 1 35.862 5.05999e+17 13159.6 1291.72 593.045 1078.4 286.849 -3.62397 2.97036e+17 3.38631e+14 0 1.03339e+17 8.76771e+16 0 1.76088e+16 0 0 0 
14532 1 26.434 3.72974e+17 15985.9 1193.63 567.87 1521.55 298.344 -7.27626 2.21154e+17 1.69315e+14 0 7.28056e+16 6.61177e+16 0 1.27269e+16 0 0 0 
18628 1 31.91 4.50238e+17 13924.3 1261.49 553.054 1194.12 312.473 5.04128 2.69973e+17 3.95069e+14 0 8.63791e+16 7.8139e+16 0 1.53513e+16 0 0 0 
5892 1 45.64 6.43963e+17 10384.2 1228.92 595.197 728.784 294.531 -1.67483 3.79492e+17 2.53973e+14 0 1.27664e+17 1.1124e+17 0 2.53126e+16 0 0 0 
9988 1 59.526 8.39889e+17 8844.89 1328.36 608.811 586.01 290.828 2.91445 4.97449e+17 6.77262e+14 0 1.75919e+17 1.36948e+17 0 2.88965e+16 0 0 0 
14084 1 39.228 5.53492e+17 12091.8 1268.12 604.031 979.8 331.458 7.3064 3.28669e+17 2.53973e+14 0 1.08842e+17 9.45062e+16 0 2.12209e+16 0 0 0 
18180 1 48.758 6.87957e+17 9644.73 1238.52 595.544 693.738 359.95 -1.56394 4.11944e+17 6.49042e+14 0 1.3977e+17 1.12736e+17 0 2.28576e+16 0 0 0 
4748 1 33.124 4.67367e+17 14776.7 1314.96 611.316 1441.81 382.252 1.04566 2.85071e+17 3.6685e+14 0 8.73385e+16 7.7744e+16 0 1.68469e+16 0 0 0 
8844 1 39.684 5.59926e+17 12839.6 1318.73 584.26 1202.09 395.409 -1.84331 3.3849e+17 4.23288e+14 0 1.11099e+17 9.08941e+16 0 1.90198e+16 0 0 0 
12940 1 26.962 3.80423e+17 16584.7 1325.21 571.077 1837.39 400.204 9.54865 2.34022e+17 2.53973e+14 0 7.11971e+16 6.16872e+16 0 1.3263e+16 0 0 0 
17036 1 30.912 4.36156e+17 14709.7 1372.93 573.569 1549.42 441.355 -1.19599 2.67293e+17 2.25754e+14 0 8.35854e+16 6.91089e+16 0 1.59439e+16 0 0 0 
5772 1 21.428 3.02341e+17 17888.9 1340.69 571.505 2149.77 448.686 3.10162 1.85852e+17 1.97535e+14 0 5.47171e+16 5.00045e+16 0 1.15699e+16 0 0 0 
9868 1 23.898 3.37192e+17 16548.5 1327.98 603.517 1978.72 476.276 0.395795 2.09697e+17 4.51508e+14 0 6.36344e+16 5.26006e+16 0 1.0808e+16 0 0 0 
13964 1 18.056 2.54763e+17 19668 1177.85 536.544 2555.23 437.846 -10.9046 1.65111e+17 1.97535e+14 0 4.34294e+16 3.70801e+16 0 8.9455e+15 0 0 0 
18060 1 19.032 2.68534e+17 18871.4 1380.88 553.814 2536.2 474.23 12.0379 1.72419e+17 5.36165e+14 0 4.55176e+16 4.01277e+16 0 9.93317e+15 0 0 0 
73 1 24.322 8.57935e+16 6078.11 193.716 154.887 7015.57 12.3931 1.75508 7.79697e+16 0 0 1.75665e+15 2.25048e+15 0 3.81665e+15 0 0 0 
137 1 25.488 8.99065e+16 8907.64 249.4 177.007 6756.48 26.3754 0.979854 7.93172e+16 1.41096e+13 0 2.94891e+15 3.64028e+15 0 3.98597e+15 0 0 0 
201 1 23.786 8.39028e+16 4963.14 175.703 154.206 7108.02 15.0367 2.01916 7.66364e+16 7.05481e+12 0 1.50267e+15 1.89069e+15 0 3.86603e+15 0 0 0 
265 1 25.206 8.89117e+16 7541.83 236.653 165.906 6882.81 28.1258 -0.786106 7.94936e+16 7.05481e+12 0 2.36336e+15 3.16055e+15 0 3.8872e+15 0 0 0 
81 1 23.648 8.3416e+16 4357.18 183.752 150.265 7152.74 20.9336 1.23377 7.66787e+16 1.41096e+13 0 1.29103e+15 1.78487e+15 0 3.64734e+15 0 0 0 
145 1 24.588 8.67318e+16 6055.43 235.488 157.094 7006.76 28.4266 -1.22484 7.82308e+16 7.05481e+12 0 1.96124e+15 2.51151e+15 0 4.02124e+15 0 0 0 
209 1 23.458 8.27458e+16 3532.26 164.466 146.225 7221.39 14.0221 -1.98208 7.64247e+16 0 0 1.05822e+15 1.39685e+15 0 3.86603e+15 0 0 0 
273 1 23.688 8.35571e+16 4821.55 212.577 155.589 7109.8 29.3958 -3.8 7.67281e+16 0 0 1.36863e+15 1.77076e+15 0 3.68966e+15 0 0 0 
89 1 23.156 8.16806e+16 2953.01 179.389 145.312 7264.74 16.0329 -2.00419 7.61425e+16 0 0 8.25412e+14 1.1711e+15 0 3.54151e+15 0 0 0 
153 1 23.398 8.25342e+16 3579.11 189.768 148.541 7213.64 24.457 1.94391 7.61214e+16 0 0 1.00884e+15 1.48856e+15 0 3.91542e+15 0 0 0 
217 1 22.978 8.10527e+16 2177.01 161.718 148.335 7319.82 14.9717 1.51865 7.58251e+16 0 0 5.5733e+14 9.52399e+14 0 3.71788e+15 0 0 0 
281 1 23.23 8.19416e+16 2661.32 173.608 149.131 7283.45 21.5693 0.142924 7.61073e+16 0 0 8.46577e+14 1.17815e+15 0 3.8096e+15 0 0 0 
74 1 27.504 9.70177e+16 12666.4 338.833 200.257 6361.82 43.6107 0.832735 8.21109e+16 2.11644e+13 0 4.87487e+15 5.7285e+15 0 4.28227e+15 0 0 0 
138 1 31.236 1.10182e+17 17596.8 524.725 241.684 5705.14 79.1537 1.11608 8.8171e+16 6.34933e+13 0 8.29645e+15 8.82556e+15 0 4.82549e+15 0 0 0 
202 1 26.218 9.24815e+16 10751.2 348.636 192.125 6563.29 45.5353 -2.00659 8.00156e+16 1.41096e+13 0 3.8872e+15 4.4798e+15 0 4.08473e+15 0 0 0 
266 1 28.864 1.01815e+17 14429.9 462.023 240.662 6125.57 81.283 -2.68018 8.45589e+16 2.11644e+13 0 6.21529e+15 6.63857e+15 0 4.38104e+15 0 0 0 
82 1 25.404 8.96102e+16 8638.36 306.168 180.706 6771.16 47.5238 -3.41352 7.9416e+16 7.05481e+12 0 2.90658e+15 3.28049e+15 0 4.00008e+15 0 0 0 
146 1 27.082 9.55291e+16 11444 371.391 197.734 6474.11 75.2808 -0.795573 8.17864e+16 0 0 4.33165e+15 5.03713e+15 0 4.37398e+15 0 0 0 
210 1 24.912 8.78747e+16 6388.18 243.581 170.59 6970.76 42.5257 -0.681251 7.91902e+16 2.11644e+13 0 2.01767e+15 2.6385e+15 0 4.00713e+15 0 0 0 
274 1 25.236 8.90176e+16 8014.5 309.577 182.551 6818.37 59.3313 0.147361 7.88657e+16 0 0 2.99124e+15 3.18877e+15 0 3.97186e+15 0 0 0 
90 1 24.046 8.48199e+16 4440.63 221.76 155.09 7137.61 32.9912 0.0489333 7.75606e+16 7.05481e+12 0 1.39685e+15 1.94713e+15 0 3.90836e+15 0 0 0 
154 1 24.238 8.54972e+16 5447.98 250.678 165.003 7041.46 50.4597 -1.61109 7.75394e+16 0 0 1.85541e+15 2.28576e+15 0 3.81665e+15 0 0 0 
218 1 23.414 8.25906e+16 3322.82 185.236 153.109 7229.53 32.3266 -3.37841 7.68833e+16 0 0 9.1007e+14 1.35452e+15 0 3.44275e+15 0 0 0 
282 1 23.736 8.37265e+16 3958.57 235.172 155.768 7167.01 40.4811 0.229014 7.69609e+16 7.05481e+12 0 1.30514e+15 1.64377e+15 0 3.8096e+15 0 0 0 
91 1 24.97 8.80793e+16 6758.09 333.089 177.752 6918.06 70.6576 -0.731806 7.89503e+16 2.82192e+13 0 2.3422e+15 2.61733e+15 0 4.14117e+15 0 0 0 
219 1 24.114 8.50598e+16 4341.94 255.042 162.109 7128.6 51.4581 -0.228627 7.78992e+16 0 0 1.62261e+15 1.6085e+15 0 3.92953e+15 0 0 0 
75 1 37.358 1.31777e+17 21601 721.825 312.988 4851.18 132.872 0.864137 9.8344e+16 8.46577e+13 0 1.37639e+16 1.43565e+16 0 5.22761e+15 0 0 0 
203 1 32.788 1.15657e+17 18255.2 582.979 280.306 5534.43 134.178 -1.05953 9.06119e+16 2.82192e+13 0 9.45344e+15 1.01448e+16 0 5.41809e+15 0 0 0 
83 1 28.67 1.01131e+17 14450.4 464.373 228.735 6098.22 122.379 0.254196 8.33102e+16 2.11644e+13 0 6.44104e+15 6.69501e+15 0 4.66323e+15 0 0 0 
211 1 26.49 9.34409e+16 9741.84 387.183 194.566 6626.46 92.1559 -1.56846 8.10104e+16 0 0 3.85898e+15 4.56446e+15 0 4.00713e+15 0 0 0 
1731 1 18.014 1.27085e+17 22461.3 689.349 322.029 4638.84 90.8738 -18.2536 9.2418e+16 7.05481e+13 0 1.45752e+16 1.4025e+16 0 5.99659e+15 0 0 0 
2243 1 21.122 1.49012e+17 23450.2 857.307 363.486 3969.73 119.771 4.25619 1.02803e+17 7.05481e+13 0 2.10092e+16 1.93725e+16 0 5.75672e+15 0 0 0 
155 1 25.52 9.00193e+16 7951.57 387.261 193.698 6800.1 96.2519 2.55254 7.96064e+16 0 0 3.09706e+15 3.17466e+15 0 4.14117e+15 0 0 0 
283 1 24.074 8.49187e+16 4834.71 259.327 174.468 7082.54 65.3732 -4.51173 7.67916e+16 7.05481e+12 0 1.67199e+15 2.20815e+15 0 4.23994e+15 0 0 0 
267 1 38.384 1.35396e+17 20965.9 789.748 334.966 4813.68 212.62 0.758651 9.97761e+16 2.82192e+13 0 1.49774e+16 1.48292e+16 0 5.78494e+15 0 0 0 
147 1 31.756 1.12016e+17 16393.7 602.205 265.783 5779.37 173.486 -2.00882 8.97301e+16 1.41096e+13 0 8.55043e+15 8.61392e+15 0 5.10768e+15 0 0 0 
275 1 27.158 9.57972e+16 11294.5 483.273 219.605 6445.44 130.859 -0.14889 8.17441e+16 2.82192e+13 0 4.9172e+15 4.6209e+15 0 4.48686e+15 0 0 0 
651 1 24.882 1.75538e+17 23296 950.103 372.518 3955.48 175.322 3.15793 1.22655e+17 4.23288e+13 0 2.27024e+16 2.33232e+16 0 6.81494e+15 0 0 0 
1163 1 29.74 2.0981e+17 22675.7 1052.96 436.111 3248.58 231.532 8.75902 1.37978e+17 1.41096e+14 0 3.22546e+16 3.1662e+16 0 7.7744e+15 0 0 0 
1675 1 20.766 1.465e+17 22672.5 869.406 362.768 4232.58 200.131 0.341318 1.03706e+17 4.23288e+13 0 1.89774e+16 1.77922e+16 0 5.98248e+15 0 0 0 
2187 1 24.268 1.71206e+17 22814.1 987.374 425.137 3619.05 256.22 2.38986 1.14993e+17 1.12877e+14 0 2.51857e+16 2.35207e+16 0 7.39344e+15 0 0 0 
1795 1 25.318 1.78614e+17 23281.9 983.235 407.443 3326.85 152.948 4.36107 1.17434e+17 1.26987e+14 0 2.70622e+16 2.61592e+16 0 7.83084e+15 0 0 0 
2307 1 32.35 2.28223e+17 21505.1 1018.2 481.76 2587.75 200.816 2.47986 1.44426e+17 9.87673e+13 0 3.79831e+16 3.6685e+16 0 9.03015e+15 0 0 0 
1292 2 31.046 2.19024e+17 19770.9 1388.4 515.618 3423.77 482.562 -2.81667 1.46359e+17 1.12877e+14 0 3.46955e+16 2.92916e+16 0 8.56454e+15 0 0 0 
2316 2 22.396 1.57999e+17 19613.4 1332.06 476.842 4269.54 440.337 -3.49765 1.11113e+17 1.12877e+14 0 2.14748e+16 1.90198e+16 0 6.27878e+15 0 0 0 
5252 2 183.274 2.58593e+18 7622.52 1605.45 696.431 550.362 65.2502 11.3859 1.50538e+18 1.49562e+15 0 5.39015e+17 4.60481e+17 0 7.955e+16 0 0 0 
13444 2 162.29 2.28985e+18 5099.83 1325.62 645.193 195.898 116.007 -2.90697 1.35418e+18 1.4674e+15 0 4.8094e+17 3.84797e+17 0 6.84599e+16 0 0 0 
17540 2 344.742 4.86418e+18 2522.84 1111.39 593.359 17.1814 109.934 1.83158 3.05685e+18 3.95069e+15 0 9.6157e+17 6.94306e+17 0 1.47502e+17 0 0 0 
6276 2 140.552 1.98313e+18 4170.52 1227.14 622.162 80.7432 147.531 3.43271 1.17e+18 1.12877e+15 0 4.18322e+17 3.27399e+17 0 6.6287e+16 0 0 0 
10372 2 243.244 3.43208e+18 2473.63 1067.23 580.562 -0.790904 127.164 -0.81461 2.13199e+18 2.28576e+15 0 6.90637e+17 4.93498e+17 0 1.13667e+17 0 0 0 
14468 2 123.944 1.7488e+18 4234.89 1194.05 608.689 85.2326 164.341 3.33149 1.03186e+18 2.06e+15 0 3.71986e+17 2.85833e+17 0 5.70593e+16 0 0 0 
18564 2 200.034 2.8224e+18 2770.02 1052.86 579.725 21.7543 121.89 -4.03852 1.73108e+18 1.41096e+15 0 5.87186e+17 4.13355e+17 0 8.93703e+16 0 0 0 
5260 2 47.68 6.72746e+17 11296.8 1379.89 613.133 1036.34 432.845 3.36071 4.08586e+17 3.38631e+14 0 1.29385e+17 1.10619e+17 0 2.3817e+16 0 0 0 
9356 2 55.916 7.88953e+17 9578.91 1366.62 621.752 886.445 451.59 4.14092 4.8712e+17 7.337e+14 0 1.54924e+17 1.20186e+17 0 2.59899e+16 0 0 0 
13452 2 34.928 4.92821e+17 13719.7 1389.6 602.984 1486.74 470.303 0.695471 3.02172e+17 3.10412e+14 0 9.33774e+16 7.8647e+16 0 1.83143e+16 0 0 0 
17548 2 38.132 5.38028e+17 12377.2 1442.12 606.474 1382.05 520.829 -5.2173 3.29121e+17 3.6685e+14 0 1.07515e+17 8.05941e+16 0 2.04307e+16 0 0 0 
6284 2 26.072 3.67866e+17 16120.7 1422.71 568.269 1967.09 500.22 -13.2137 2.26854e+17 2.82192e+14 0 6.9899e+16 5.66078e+16 0 1.42225e+16 0 0 0 
10380 2 27.33 3.85616e+17 14586.3 1497.41 614.283 1825.68 555.004 2.25083 2.37973e+17 3.38631e+14 0 7.28903e+16 6.0107e+16 0 1.43071e+16 0 0 0 
14476 2 20.728 2.92464e+17 17752.5 1601.45 561.543 2451.93 504.403 1.24631 1.88081e+17 1.12877e+14 0 5.16976e+16 4.35987e+16 0 8.97371e+15 0 0 0 
18572 2 20.878 2.94581e+17 17372.6 1424.39 592.597 2484.16 548.55 -0.0738878 1.91326e+17 3.38631e+14 0 4.8791e+16 4.2865e+16 0 1.12595e+16 0 0 0 
5380 2 112.78 1.59128e+18 5726.43 1259.73 617.719 267.259 182.896 3.6242 9.40011e+17 1.43918e+15 0 3.3183e+17 2.66531e+17 0 5.14719e+16 0 0 0 
9476 2 178.332 2.5162e+18 3701.67 1154.96 595.018 126.098 147.147 -2.23089 1.55954e+18 2.39863e+15 0 4.9759e+17 3.79774e+17 0 7.68974e+16 0 0 0 
13572 2 98.35 1.38768e+18 6052.89 1270.89 608.335 298.937 231.368 -3.21008 8.20756e+17 7.90138e+14 0 2.87272e+17 2.31003e+17 0 4.78598e+16 0 0 0 
17668 2 152.422 2.15062e+18 4193.37 1138.3 606.104 160.01 195.796 4.64372 1.31592e+18 1.12877e+15 0 4.36918e+17 3.33749e+17 0 6.29007e+16 0 0 0 
6404 2 80.636 1.13774e+18 6739.79 1282.29 603.265 380.83 296.834 1.34377 6.84881e+17 8.46577e+14 0 2.3501e+17 1.81563e+17 0 3.54434e+16 0 0 0 
10500 2 119.432 1.68514e+18 4578.05 1185.17 602.737 192.204 268.062 -2.51714 1.02035e+18 1.49562e+15 0 3.44783e+17 2.6718e+17 0 5.13308e+16 0 0 0 
14596 2 63.972 9.0262e+17 8129.77 1219.24 603.61 569.49 361.734 -0.218114 5.47425e+17 7.61919e+14 0 1.75806e+17 1.48292e+17 0 3.03357e+16 0 0 0 
18692 2 85 1.19932e+18 6119.85 1240.85 609.904 383.742 346.149 1.38354 7.32487e+17 1.10055e+15 0 2.4277e+17 1.80406e+17 0 4.25546e+16 0 0 0 
8 3 8.892 1.56828e+16 8109.29 3368.25 1001.59 4853.61 -201.153 -10.1869 9.34762e+15 1.41096e+13 0 3.13586e+15 2.5997e+15 0 5.85549e+14 0 0 0 
7 3 7.79 1.37392e+16 8862.83 3697.11 991.126 4344.89 -309.785 12.0863 7.88022e+15 7.05481e+12 0 2.97007e+15 2.35631e+15 0 5.25583e+14 0 0 0 
80 3 24.918 8.78958e+16 4952.34 1459.12 453.947 6476.42 21.5537 -1.86728 6.60894e+16 3.5274e+13 0 9.68625e+15 8.91022e+15 0 3.17466e+15 0 0 0 
144 3 24.272 8.56171e+16 4762.39 1437.55 428.036 6542.41 12.6336 -9.0451 6.54474e+16 6.34933e+13 0 9.03015e+15 7.94371e+15 0 3.13233e+15 0 0 0 
208 3 28.454 1.00369e+17 4712.13 1323.7 399.528 6602.24 117.809 0.557028 7.85341e+16 2.11644e+13 0 9.92611e+15 8.14125e+15 0 3.7461e+15 0 0 0 
272 3 27.642 9.75045e+16 4301.25 1223.97 404.68 6679.94 104.114 1.54486 7.68903e+16 4.23288e+13 0 8.89611e+15 8.02132e+15 0 3.65439e+15 0 0 0 
88 3 27.258 9.615e+16 3956.08 1045.5 328.715 6847.42 136.975 -0.909665 8.00368e+16 3.5274e+13 0 6.65268e+15 5.53802e+15 0 3.8872e+15 0 0 0 
152 3 26.706 9.42028e+16 3734.43 959.548 324.35 6872.35 130.233 -2.54051 7.8774e+16 2.11644e+13 0 6.05302e+15 5.54508e+15 0 3.8096e+15 0 0 0 
216 3 25.688 9.06119e+16 3327.23 835.215 280.331 7013.57 131.532 1.48718 7.85271e+16 0 0 4.48686e+15 3.59795e+15 0 4.00008e+15 0 0 0 
280 3 25.808 9.10352e+16 3120.01 810.353 280.385 7024.56 129.479 -1.50704 7.9169e+16 2.82192e+13 0 4.38809e+15 3.64028e+15 0 3.8096e+15 0 0 0 
96 3 24.872 8.77336e+16 2776.23 626.596 244.621 7128.8 117.421 -0.237899 7.80121e+16 1.41096e+13 0 3.13233e+15 2.4974e+15 0 4.07768e+15 0 0 0 
160 3 25.018 8.82486e+16 2665.18 620.924 244.342 7129.1 119.81 1.72522 7.89927e+16 1.41096e+13 0 2.8572e+15 2.48329e+15 0 3.90131e+15 0 0 0 
224 3 24.134 8.51304e+16 2403.85 537.222 211.036 7203.89 111.922 -1.27578 7.74971e+16 1.41096e+13 0 2.10233e+15 1.64377e+15 0 3.87309e+15 0 0 0 
288 3 24.234 8.54831e+16 2130.46 497.816 204.059 7230.11 105.275 -1.37858 7.80826e+16 7.05481e+12 0 1.88363e+15 1.65788e+15 0 3.85192e+15 0 0 0 
79 3 27.712 9.77514e+16 5720.87 1669.31 514.195 6273.77 41.5574 1.55085 7.00542e+16 3.5274e+13 0 1.2487e+16 1.14993e+16 0 3.67555e+15 0 0 0 
143 3 26.564 9.3702e+16 5394.88 1692.82 473.861 6375.45 28.4358 -2.64013 6.85657e+16 7.05481e+12 0 1.12595e+16 1.02224e+16 0 3.64734e+15 0 0 0 
207 3 30.124 1.0626e+17 5526.22 1527.9 442.189 6474.6 151.776 -6.26649 8.24989e+16 4.93837e+13 0 1.03423e+16 9.45344e+15 0 3.91542e+15 0 0 0 
271 3 29.232 1.03113e+17 4968.2 1381.53 452.755 6557.21 127.214 -2.63826 8.02132e+16 5.64385e+13 0 1.01025e+16 9.12187e+15 0 3.61912e+15 0 0 0 
87 3 28.012 9.88096e+16 4873.86 1174.5 350.271 6751.84 178.251 2.60435 8.19628e+16 0 0 7.03364e+15 5.98248e+15 0 3.83076e+15 0 0 0 
151 3 27.416 9.67073e+16 4332.89 1064.17 343.742 6805.27 156.555 1.22908 8.05165e+16 2.11644e+13 0 6.66679e+15 5.72145e+15 0 3.78138e+15 0 0 0 
215 3 26.2 9.2418e+16 4207.24 806.812 287.273 6926.61 159.314 5.6258 7.95994e+16 1.41096e+13 0 4.6209e+15 3.97186e+15 0 4.21172e+15 0 0 0 
279 3 26.348 9.294e+16 3807.04 827.557 269.142 6965.91 154.225 1.78204 8.07705e+16 2.82192e+13 0 4.4022e+15 3.87309e+15 0 3.86603e+15 0 0 0 
95 3 25.188 8.88482e+16 3610.32 620.53 219.946 7070.36 143.312 -1.73575 7.92749e+16 1.41096e+13 0 2.87836e+15 2.8572e+15 0 3.82371e+15 0 0 0 
159 3 25.052 8.83685e+16 3186.52 622.389 248.787 7093.21 130.888 5.4388 7.88022e+16 2.82192e+13 0 2.94891e+15 2.64555e+15 0 3.94364e+15 0 0 0 
223 3 24.304 8.573e+16 3012.95 500.566 198.443 7163.22 119.819 5.69375 7.78569e+16 7.05481e+12 0 2.13055e+15 1.78487e+15 0 3.95069e+15 0 0 0 
287 3 24.22 8.54337e+16 2712.41 549.463 205.208 7177.97 118.116 2.45218 7.75888e+16 1.41096e+13 0 2.17994e+15 1.86952e+15 0 3.78138e+15 0 0 0 
142 3 30.238 1.06662e+17 6381.17 1849.67 533.622 6122.46 53.8266 -1.93705 7.56064e+16 2.11644e+13 0 1.44765e+16 1.31008e+16 0 3.45686e+15 0 0 0 
270 3 31.252 1.10238e+17 6303.42 1624.44 461.596 6367.67 187.713 8.2391 8.43473e+16 2.82192e+13 0 1.19297e+16 9.4605e+15 0 4.47275e+15 0 0 0 
150 3 28.51 1.00566e+17 6027.45 1174.76 357.691 6623 215.194 -3.52724 8.28587e+16 3.5274e+13 0 7.56275e+15 6.0883e+15 0 4.02124e+15 0 0 0 
278 3 26.892 9.48589e+16 5134.46 893.321 288.48 6845.37 196.586 -2.08001 8.13984e+16 7.05481e+12 0 4.93837e+15 4.20467e+15 0 4.31049e+15 0 0 0 
158 3 25.414 8.96454e+16 4339.18 628.494 230.599 7004.23 156.286 4.18634 7.89151e+16 1.41096e+13 0 3.56268e+15 3.16055e+15 0 3.99302e+15 0 0 0 
286 3 24.13 8.51163e+16 3519.86 463.077 208.599 7123.36 126.553 3.49794 7.7363e+16 2.82192e+13 0 2.13761e+15 1.9048e+15 0 3.68261e+15 0 0 0 
5 3 162.084 2.77196e+18 2919.39 1007.81 572.982 104.781 186.692 0.936308 1.79171e+18 2.32587e+15 0 5.24279e+17 3.6653e+17 0 8.71176e+16 0 0 0 
5 3 2.11 1.49746e+16 9175.61 2791.01 919.348 2592.07 -692.906 -66.8906 8.55893e+15 0 0 3.13685e+15 2.52652e+15 0 7.52277e+14 0 0 0 
149 3 31.768 1.12059e+17 10540.9 1241.99 375.143 6133.54 305.229 5.37332 8.90317e+16 2.11644e+13 0 9.912e+15 8.33173e+15 0 4.76199e+15 0 0 0 
277 3 27.576 9.72717e+16 8571.12 863.684 302.838 6523.85 239.747 -2.70237 8.1864e+16 2.11644e+13 0 6.02481e+15 5.34754e+15 0 4.01419e+15 0 0 0 
157 3 26.036 9.18395e+16 6285.53 648.64 238.485 6846.42 171.473 4.65526 8.07634e+16 2.11644e+13 0 4.12706e+15 3.14644e+15 0 3.78138e+15 0 0 0 
285 3 24.9 8.78324e+16 4680.89 407.49 196.6 7040.64 125.64 -2.18834 7.88516e+16 1.41096e+13 0 2.575e+15 2.39158e+15 0 4.00008e+15 0 0 0 
6 3 6.246 1.18659e+16 9972.58 3707.48 893.819 3679.28 -566.775 -57.6246 6.72515e+15 0 0 2.60647e+15 2.02134e+15 0 5.12935e+14 0 0 0 