ITEM: TIMESTEP
14000
ITEM: NUMBER OF SURFS
134
ITEM: BOX BOUNDS oo ao pp
-10 10
0 10
-0.5 0.5
ITEM: SURFS id f_avg_pressure[1] f_avg_pressure[2] f_avg_pressure[3] f_avg_pressure[4] f_avg_shear[1] f_avg_shear[2] f_avg_shear[3] f_avg_heat_flux[*] f_avg_fdrag[*] 
1 0.910267 0.909672 0.0329279 0 0.0011151 -0.0308059 -0.000439103 2787.57 0.00705649 
5 0.822867 0.822863 -0.00273313 0 0.000105897 0.0318825 -0.00364 2451.49 0.0574077 
9 0.507941 0.507475 -0.0217597 0 0.00184733 0.043083 -0.00225468 1514.89 0.0671071 
13 0.349029 0.347846 -0.0287153 0 0.00375524 0.0454896 0.00269758 1028 0.068089 
17 0.296631 0.294431 -0.0360603 0 0.0059912 0.048918 0.00980898 890.742 0.0767124 
21 0.246549 0.243346 -0.039615 0 0.00647471 0.0397727 0.00201178 743.133 0.0791299 
25 0.253981 0.248873 -0.0506814 0 0.00895815 0.0439893 -0.00252143 754.005 0.097396 
29 0.330255 0.320757 -0.0786349 0 0.0164153 0.066959 0.000857293 1004.3 0.14777 
33 0.318108 0.305727 -0.0878879 0 0.0225181 0.0783314 0.0029622 996.54 0.163532 
37 0.295579 0.280627 -0.0928204 0 0.0273255 0.0826142 0.000706222 913.535 0.171668 
41 0.283846 0.265756 -0.0997108 0 0.0340665 0.0907964 -0.00274759 915.348 0.184671 
45 0.237372 0.218777 -0.0920982 0 0.0359991 0.085515 0.00616333 781.013 0.171604 
49 0.235616 0.213377 -0.0999248 0 0.042979 0.0917765 -0.00338054 792.421 0.187197 
53 0.064819 0.0306331 -0.0571237 0 0.0865564 0.0464167 -0.0031881 359.785 0.0887217 
57 0.0011627 -0.000323482 -0.0011168 0 0.00210451 -0.000609574 -0.000283272 6.54873 0.00135914 
61 0 0 0 0 0 0 0 0 0 
65 0 0 0 0 0 0 0 0 0 
69 0 0 0 0 0 0 0 0 0 
73 0 0 0 0 0 0 0 0 0 
77 0 0 0 0 0 0 0 0 0 
81 0 0 0 0 0 0 0 0 0 
85 0 0 0 0 0 0 0 0 0 
89 0 0 0 0 0 0 0 0 0 
93 0 0 0 0 0 0 0 0 0 
97 0 0 0 0 0 0 0 0 0 
101 0 0 0 0 0 0 0 0 0 
105 0 0 0 0 0 0 0 0 0 
109 0 0 0 0 0 0 0 0 0 
113 0 0 0 0 0 0 0 0 0 
117 0 0 0 0 0 0 0 0 0 
121 0 0 0 0 0 0 0 0 0 
125 0 0 0 0 0 0 0 0 0 
129 0 0 0 0 0 0 0 0 0 
133 0 0 0 0 0 0 0 0 0 
2 1.08082 1.08044 0.0284168 0 0.000632417 -0.0240453 0.0186364 3288.51 0.02513 
6 0.81975 0.819679 -0.0108235 0 0.000534622 0.0404878 -0.00185508 2484.87 0.0699327 
10 0.513341 0.512628 -0.0270524 0 0.00287141 0.0544115 0.00133164 1524.38 0.0759048 
14 0.303731 0.302441 -0.0279723 0 0.00375029 0.0405487 -0.00123832 901.911 0.0640245 
18 0.274643 0.272263 -0.0360792 0 0.00464134 0.0350248 0.00479536 793.364 0.074966 
22 0.276342 0.272298 -0.0471001 0 0.00719016 0.0415682 -0.00703616 846.42 0.0928006 
26 0.291561 0.285109 -0.0609982 0 0.0133747 0.0625142 0.00488238 903.646 0.117281 
30 0.312293 0.302563 -0.0773478 0 0.0178113 0.0696728 -0.00414158 962.2 0.145227 
34 0.307452 0.294633 -0.0878547 0 0.0233119 0.0781798 -0.00136006 982.24 0.163127 
38 0.286642 0.27124 -0.092697 0 0.0262542 0.0768222 -0.000656643 908.636 0.170211 
42 0.25606 0.238841 -0.0923134 0 0.0341146 0.0882643 0.0040091 837.587 0.172076 
46 0.237434 0.217913 -0.094281 0 0.0384418 0.0888511 0.00130745 785.023 0.176326 
50 0.212714 0.186884 -0.101594 0 0.0508089 0.0934645 8.94548e-05 741.896 0.172648 
54 0.036862 0.0108472 -0.0352299 0 0.0734135 0.0226038 -0.000360006 278.956 0.0642683 
58 0.000458129 -0.000209723 -0.000407306 0 0.00073217 -0.000376997 0.000365304 1.5744 0.000395838 
62 0.000244515 -0.000131355 -0.000206236 0 0.000256557 -0.000163405 -0.000269387 0.831735 9.39453e-05 
66 7.64012e-05 -4.10424e-05 -6.44411e-05 0 0.000362718 -0.000231014 -3.25793e-05 1.32001 0.000230445 
70 0.000437542 -0.000235051 -0.000369045 0 0.000481939 -0.000306956 -0.00064659 1.19623 0.000168477 
74 0 0 0 0 0 0 0 0 0 
78 0 0 0 0 0 0 0 0 0 
82 0.00048376 -0.000259887 -0.000408023 0 0.000746381 -0.000475401 0.000108048 2.62203 0.000282402 
86 0 0 0 0 0 0 0 0 0 
90 0 0 0 0 0 0 0 0 0 
94 0 0 0 0 0 0 0 0 0 
98 0 0 0 0 0 0 0 0 0 
102 0 0 0 0 0 0 0 0 0 
106 0.000270509 -0.000145319 -0.000228161 0 0.00045627 -0.000290604 1.41401e-05 0.272149 0.000117114 
110 0 0 0 0 0 0 0 0 0 
114 0 0 0 0 0 0 0 0 0 
118 0 0 0 0 0 0 0 0 0 
122 0 0 0 0 0 0 0 0 0 
126 0 0 0 0 0 0 0 0 0 
130 0 0 0 0 0 0 0 0 0 
134 0 0 0 0 0 0 0 0 0 
3 0.905646 0.905524 0.0148727 0 -1.38415e-06 8.42742e-05 0.00208614 2740.39 0.0350864 
7 0.661251 0.661075 -0.0152678 0 0.00105391 0.0456327 -0.00333512 1965.08 0.066719 
11 0.436403 0.435548 -0.0273033 0 0.00285907 0.0456086 0.00967452 1296.11 0.0713399 
15 0.3344 0.332658 -0.0340884 0 0.00468878 0.0457564 -0.00184764 1021.24 0.0757454 
19 0.252083 0.249559 -0.0355831 0 0.00593481 0.0416233 0.00276844 737.082 0.0730943 
23 0.247431 0.243383 -0.0445734 0 0.00817727 0.0446501 -0.000447046 718.022 0.0873671 
27 0.316447 0.308774 -0.0692632 0 0.0143451 0.0639501 0.00310687 993.618 0.131855 
31 0.337733 0.326367 -0.0868794 0 0.0211987 0.0796339 0.00206861 1074.22 0.162767 
35 0.354032 0.338254 -0.104513 0 0.0302178 0.0977986 -0.00221771 1120.96 0.19452 
39 0.300804 0.283665 -0.100086 0 0.0349808 0.0991427 0.0006655 963.431 0.186977 
43 0.242867 0.225659 -0.0897912 0 0.0323265 0.0812416 0.00284364 775.995 0.166363 
47 0.232654 0.212603 -0.0944877 0 0.0366147 0.0823852 0.00132939 748.088 0.174952 
51 0.180276 0.13887 -0.114955 0 0.0877658 0.106024 0.0024357 707.267 0.167374 
55 0.00867812 0.000910841 -0.00863019 0 0.0299116 0.00315691 0.000564161 101.054 0.0236009 
59 0.000308182 -0.000165558 -0.000259936 0 0.000333457 -0.000212385 -0.000440449 1.0263 0.000130262 
63 0.00037562 -0.000201783 -0.000316819 0 0.00041099 -0.000261761 -0.000351352 0.728873 0.000155204 
67 0.00113216 -0.000608206 -0.000954921 0 0.00183706 -0.00117005 -0.000735232 5.55088 0.000869884 
71 0 0 0 0 0 0 0 0 0 
75 0 0 0 0 0 0 0 0 0 
79 0 0 0 0 0 0 0 0 0 
83 0 0 0 0 0 0 0 0 0 
87 0 0 0 0 0 0 0 0 0 
91 0 0 0 0 0 0 0 0 0 
95 0 0 0 0 0 0 0 0 0 
99 0 0 0 0 0 0 0 0 0 
103 0 0 0 0 0 0 0 0 0 
107 0 0 0 0 0 0 0 0 0 
111 0 0 0 0 0 0 0 0 0 
115 0 0 0 0 0 0 0 0 0 
119 0 0 0 0 0 0 0 0 0 
123 0 0 0 0 0 0 0 0 0 
127 0 0 0 0 0 0 0 0 0 
131 0 0 0 0 0 0 0 0 0 
4 0.974659 0.974638 0.0063765 0 -0.000123465 0.0188714 -0.00504726 2968.64 0.0528689 
8 0.580924 0.580609 -0.0191432 0 0.00122684 0.0372097 -0.00150868 1743.26 0.0676464 
12 0.416993 0.415898 -0.0301937 0 0.00377231 0.051961 -0.000377648 1226.15 0.0747831 
16 0.300065 0.298185 -0.0335361 0 0.00360754 0.0320764 -0.0128703 883.396 0.0724147 
20 0.285862 0.282588 -0.04314 0 0.00778936 0.0510241 0.0039519 855.597 0.0875279 
24 0.308408 0.302799 -0.0585513 0 0.0121982 0.0630829 0.000247072 945.78 0.114198 
28 0.332358 0.323567 -0.0759354 0 0.0168067 0.0716149 -0.000283436 1033.97 0.144041 
32 0.332154 0.320117 -0.0886079 0 0.0223268 0.0806607 -0.0017334 1021 0.165491 
36 0.316461 0.30142 -0.0964041 0 0.030307 0.0947587 0.00113907 1024.08 0.180026 
40 0.259506 0.243856 -0.0887548 0 0.0307532 0.0844951 -0.00394308 819.375 0.165146 
44 0.256284 0.237176 -0.0971025 0 0.0365128 0.0891837 -0.00132269 843.058 0.180425 
48 0.204096 0.18568 -0.0847252 0 0.0367472 0.0805335 -0.00499831 664.657 0.159292 
52 0.11118 0.070408 -0.0860448 0 0.0914366 0.0748199 -0.0048058 503.46 0.121207 
56 0.00254934 -0.000225115 -0.00253938 0 0.00415667 -0.000368487 -0.000127039 13.2683 0.00301079 
60 0 0 0 0 0 0 0 0 0 
64 0.00142827 -0.000767303 -0.00120466 0 0.00223894 -0.00142608 0.000447824 4.16207 0.00107926 
68 6.87611e-05 -3.69399e-05 -5.7996e-05 0 0.000203911 -0.000129879 -4.69898e-05 0.287132 0.000116779 
72 0 0 0 0 0 0 0 0 0 
76 0 0 0 0 0 0 0 0 0 
80 0 0 0 0 0 0 0 0 0 
84 0 0 0 0 0 0 0 0 0 
88 0 0 0 0 0 0 0 0 0 
92 0 0 0 0 0 0 0 0 0 
96 0 0 0 0 0 0 0 0 0 
100 0 0 0 0 0 0 0 0 0 
104 0 0 0 0 0 0 0 0 0 
108 0 0 0 0 0 0 0 0 0 
112 0 0 0 0 0 0 0 0 0 
116 0 0 0 0 0 0 0 0 0 
120 0 0 0 0 0 0 0 0 0 
124 0 0 0 0 0 0 0 0 0 
128 0 0 0 0 0 0 0 0 0 
132 0 0 0 0 0 0 0 0 0 
