ITEM: TIMESTEP
19000
ITEM: NUMBER OF SURFS
134
ITEM: BOX BOUNDS oo ao pp
-10 10
0 10
-0.5 0.5
ITEM: SURFS id f_avg_pressure[1] f_avg_pressure[2] f_avg_pressure[3] f_avg_pressure[4] f_avg_shear[1] f_avg_shear[2] f_avg_shear[3] f_avg_heat_flux[*] f_avg_fdrag[*] 
1 0.941547 0.94093 0.0340594 0 0.000726109 -0.0200596 -0.000640036 2858.61 0.00729566 
5 0.840934 0.840929 -0.00279314 0 9.11014e-05 0.0274279 -0.00215781 2515.9 0.058667 
9 0.527053 0.526569 -0.0225784 0 0.00197831 0.0461377 -0.0019008 1566.67 0.0696402 
13 0.350291 0.349104 -0.0288191 0 0.00370924 0.0449323 -0.000928724 1029.64 0.0683237 
17 0.291772 0.289608 -0.0354695 0 0.00535662 0.0437367 0.00188997 870.319 0.0753186 
21 0.271095 0.267573 -0.043559 0 0.00684 0.0420166 0.00229415 810.824 0.0869195 
25 0.295172 0.289235 -0.058901 0 0.0102084 0.0501289 0.00223865 890.917 0.113115 
29 0.338407 0.328674 -0.0805759 0 0.0176513 0.0720007 0.00154917 1033.36 0.151781 
33 0.321733 0.30921 -0.0888892 0 0.0241729 0.0840878 -0.000950302 1001.55 0.166092 
37 0.304654 0.289242 -0.09567 0 0.0293908 0.0888582 -0.000483401 949.976 0.177621 
41 0.26435 0.247503 -0.0928621 0 0.0328904 0.0876619 0.00236721 856.969 0.172704 
45 0.228813 0.210889 -0.0887775 0 0.0352936 0.083839 -6.52483e-05 735.056 0.165816 
49 0.248172 0.224748 -0.10525 0 0.0460566 0.0983482 -0.0018424 828.223 0.197748 
53 0.0665945 0.0314722 -0.0586884 0 0.0878692 0.0471207 -0.00104393 384.228 0.090351 
57 0.00124442 -0.000346217 -0.00119529 0 0.00175093 -0.00050716 2.34339e-05 5.78996 0.00107197 
61 0.000338554 -0.000181874 -0.000285553 0 0.000506496 -0.000322596 0.000230611 1.969 0.000246338 
65 3.21438e-05 -1.72679e-05 -2.71116e-05 0 5.7648e-05 -3.6717e-05 4.31637e-05 0.27243 2.92703e-05 
69 7.13421e-05 -3.83249e-05 -6.01739e-05 0 0.000115567 -7.36048e-05 9.54552e-05 0.444304 5.3367e-05 
73 0 0 0 0 0 0 0 0 0 
77 0.000113179 -6.07998e-05 -9.54616e-05 0 0.00019971 -0.000127196 0.000260016 0.655251 8.65354e-05 
81 0 0 0 0 0 0 0 0 0 
85 5.47427e-05 -2.94083e-05 -4.61726e-05 0 0.000196858 -0.000125383 -1.5006e-05 0.946251 9.29343e-05 
89 2.18815e-05 -1.1755e-05 -1.84559e-05 0 0.000127517 -8.12189e-05 -9.07267e-05 0.202698 6.03165e-05 
93 7.29186e-05 -3.91734e-05 -6.15025e-05 0 0.000286904 -0.000182741 0.000166254 1.07202 0.000120658 
97 0 0 0 0 0 0 0 0 0 
101 0 0 0 0 0 0 0 0 0 
105 0 0 0 0 0 0 0 0 0 
109 0 0 0 0 0 0 0 0 0 
113 0 0 0 0 0 0 0 0 0 
117 0 0 0 0 0 0 0 0 0 
121 0 0 0 0 0 0 0 0 0 
125 0 0 0 0 0 0 0 0 0 
129 0 0 0 0 0 0 0 0 0 
133 0 0 0 0 0 0 0 0 0 
2 0.964009 0.963676 0.0253457 0 0.000237924 -0.00904615 -0.00154972 2923.45 0.0224066 
6 0.746002 0.745937 -0.00984973 0 0.000508698 0.0385245 -0.00141535 2219.2 0.0636431 
10 0.499852 0.499157 -0.0263416 0 0.00266143 0.0504325 -0.00040689 1482.6 0.0738905 
14 0.343939 0.342478 -0.0316753 0 0.00396615 0.0428826 0.000932797 1026.24 0.0724414 
18 0.275329 0.272943 -0.0361693 0 0.0050757 0.0383026 -0.000277229 802.511 0.0752677 
22 0.274023 0.270014 -0.0467049 0 0.0077921 0.0450482 -0.00237696 830.05 0.0922418 
26 0.295794 0.289248 -0.061884 0 0.011886 0.0555555 0.0012565 902.298 0.118322 
30 0.330331 0.320038 -0.0818153 0 0.0191477 0.0749003 -0.00107963 1025.81 0.153754 
34 0.316232 0.303047 -0.0903635 0 0.0257745 0.0864383 -0.000427409 992.885 0.168707 
38 0.281061 0.265958 -0.0908919 0 0.0282796 0.0827488 -0.00161449 874.6 0.168348 
42 0.260113 0.242622 -0.0937745 0 0.0335531 0.0868115 0.002392 836.099 0.174105 
46 0.239143 0.219481 -0.0949594 0 0.0389198 0.0899559 0.00274499 777.087 0.177734 
50 0.214979 0.188874 -0.102675 0 0.0517883 0.0952661 0.00136262 749.397 0.174804 
54 0.0368282 0.0108373 -0.0351976 0 0.0777387 0.0239356 -0.000305781 296.407 0.0675597 
58 0.000164023 -7.50869e-05 -0.000145827 0 0.0002738 -0.000140981 0.000102369 0.566371 0.000150557 
62 0.000265126 -0.000142427 -0.00022362 0 0.000513838 -0.000327271 -3.14121e-05 1.6702 0.000278688 
66 7.69247e-05 -4.13236e-05 -6.48827e-05 0 0.000183078 -0.000116602 2.20421e-05 0.418291 0.000101551 
70 0.000189749 -0.000101935 -0.000160044 0 0.000214988 -0.00013693 -0.000211591 0.489011 7.71479e-05 
74 0 0 0 0 0 0 0 0 0 
78 0.000115008 -6.17846e-05 -9.7002e-05 0 0.000229551 -0.000146211 -8.26237e-05 0.83307 0.000103086 
82 0.000156266 -8.39495e-05 -0.000131801 0 0.000256014 -0.000163066 -9.98327e-06 0.609331 9.98809e-05 
86 0 0 0 0 0 0 0 0 0 
90 0 0 0 0 0 0 0 0 0 
94 0 0 0 0 0 0 0 0 0 
98 0 0 0 0 0 0 0 0 0 
102 0.000106248 -5.70771e-05 -8.96153e-05 0 0.000190022 -0.000121027 0.000197591 0.560654 5.45883e-05 
106 4.50848e-05 -2.42198e-05 -3.80268e-05 0 7.6045e-05 -4.84341e-05 2.35668e-06 0.0453582 1.95191e-05 
110 0.000254194 -0.000136554 -0.000214401 0 0.000602017 -0.000383431 -0.000418251 2.10916 0.000159494 
114 0 0 0 0 0 0 0 0 0 
118 0 0 0 0 0 0 0 0 0 
122 0 0 0 0 0 0 0 0 0 
126 0 0 0 0 0 0 0 0 0 
130 0 0 0 0 0 0 0 0 0 
134 0 0 0 0 0 0 0 0 0 
3 0.939536 0.939409 0.0154292 0 -0.000101791 0.00619755 -0.00013293 2845.71 0.0363955 
7 0.666503 0.666326 -0.0153891 0 0.0010388 0.0449786 0.000250555 1975.18 0.0672466 
11 0.423592 0.422762 -0.0265018 0 0.00282148 0.0450089 0.00193494 1251.24 0.0692532 
15 0.313702 0.312068 -0.0319784 0 0.00441724 0.0431064 -2.35906e-05 928.514 0.0710612 
19 0.265869 0.263207 -0.0375291 0 0.00595713 0.0417798 0.00387059 784.935 0.0770053 
23 0.263843 0.259526 -0.0475299 0 0.0082132 0.0448463 -0.0036445 778.788 0.0929863 
27 0.320634 0.312859 -0.0701796 0 0.0145042 0.0646593 -0.000923047 985.074 0.133588 
31 0.330571 0.319446 -0.085037 0 0.0216113 0.0811839 0.00296451 1025.59 0.159719 
35 0.315566 0.301502 -0.093158 0 0.0265517 0.0859335 0.00170844 996.033 0.173183 
39 0.284979 0.268741 -0.0948207 0 0.031668 0.0897534 -0.00165233 914.342 0.176276 
43 0.270044 0.25091 -0.0998387 0 0.0377958 0.0949867 -0.000408526 871.546 0.186173 
47 0.226721 0.207181 -0.0920782 0 0.0392091 0.0882228 0.00171447 746.486 0.172968 
51 0.171657 0.13223 -0.109459 0 0.080503 0.0972505 -0.00106574 672.017 0.157107 
55 0.00866702 0.000909675 -0.00861915 0 0.0302879 0.00319662 0.000422655 108.773 0.0238881 
59 0.00014228 -7.6434e-05 -0.000120006 0 0.000167287 -0.000106548 -3.77336e-05 0.699333 7.04865e-05 
63 0.000200617 -0.000107771 -0.000169211 0 0.000174071 -0.000110867 -2.51029e-05 0.495473 4.91858e-05 
67 0.000203366 -0.00010925 -0.000171529 0 0.000374431 -0.000238482 -0.000108765 1.14888 0.000187717 
71 0.000119991 -6.44611e-05 -0.000101205 0 0.000279983 -0.00017833 -7.70053e-05 0.596748 0.000145246 
75 0.000131066 -7.04102e-05 -0.000110547 0 8.41284e-05 -5.35834e-05 4.10877e-05 0.0408943 8.77902e-06 
79 8.85817e-05 -4.75868e-05 -7.47142e-05 0 0.000139094 -8.85916e-05 -2.37518e-05 0.562263 5.54497e-05 
83 8.67917e-06 -4.66244e-06 -7.3205e-06 0 5.69468e-05 -3.62695e-05 -1.0167e-05 0.313352 2.99064e-05 
87 0 0 0 0 0 0 0 0 0 
91 0 0 0 0 0 0 0 0 0 
95 4.36128e-05 -2.3429e-05 -3.67853e-05 0 0.00010355 -6.59523e-05 -0.000108724 0.128613 3.76619e-05 
99 0.000173152 -9.30184e-05 -0.000146046 0 0.000379544 -0.000241737 0.000144915 1.16843 0.000124951 
103 0 0 0 0 0 0 0 0 0 
107 0 0 0 0 0 0 0 0 0 
111 0 0 0 0 0 0 0 0 0 
115 0 0 0 0 0 0 0 0 0 
119 0 0 0 0 0 0 0 0 0 
123 0 0 0 0 0 0 0 0 0 
127 0 0 0 0 0 0 0 0 0 
131 0 0 0 0 0 0 0 0 0 
4 0.90151 0.901491 0.00589794 0 -0.000105829 0.0161757 -0.00395914 2712.68 0.0489015 
8 0.620768 0.620431 -0.0204562 0 0.00147065 0.0446044 0.00186729 1850.12 0.0723045 
12 0.411611 0.41053 -0.029804 0 0.00337972 0.0465534 0.000279619 1203.74 0.0737566 
16 0.293865 0.292024 -0.0328431 0 0.00417469 0.0371192 -0.00107569 864.59 0.0710724 
20 0.268506 0.265431 -0.0405209 0 0.00643607 0.0421594 -0.000279198 799.254 0.0819484 
24 0.287729 0.282496 -0.0546254 0 0.0101442 0.0524607 -0.00425642 871.068 0.106093 
28 0.329277 0.320567 -0.0752313 0 0.0165373 0.0704671 -0.000249206 1016.05 0.142658 
32 0.32848 0.316576 -0.0876278 0 0.0222539 0.0803973 -3.13223e-05 1012.18 0.163745 
36 0.313664 0.298755 -0.0955518 0 0.0297566 0.0930378 0.00148222 997.717 0.178281 
40 0.281862 0.264864 -0.0964009 0 0.0341131 0.0937265 0.00104452 893.192 0.179801 
44 0.249501 0.230899 -0.0945327 0 0.0357303 0.0872724 0.000818332 802.412 0.175771 
48 0.22303 0.202905 -0.0925851 0 0.0400488 0.087769 -0.00123586 728.284 0.173992 
52 0.104781 0.0663556 -0.0810924 0 0.0850025 0.0695551 -0.00228599 472.159 0.113354 
56 0.00249616 -0.000220419 -0.00248641 0 0.00396947 -0.000351892 -0.000123886 12.7771 0.00287103 
60 0.000101995 -5.47931e-05 -8.60277e-05 0 0.000218544 -0.000139196 -3.65494e-05 0.388891 0.000125656 
64 0.000697186 -0.000374546 -0.000588034 0 0.00151953 -0.000967858 0.000301513 4.69987 0.0008397 
68 1.14602e-05 -6.15665e-06 -9.66599e-06 0 3.39852e-05 -2.16465e-05 -7.83163e-06 0.0478553 1.94632e-05 
72 6.02568e-05 -3.23703e-05 -5.08236e-05 0 8.56876e-05 -5.45758e-05 -3.54405e-05 0.332847 3.54781e-05 
76 0.000488775 -0.000262574 -0.000412256 0 0.000639651 -0.000407407 0.000387852 1.94256 0.000238101 
80 0 0 0 0 0 0 0 0 0 
84 4.61426e-05 -2.47882e-05 -3.89189e-05 0 0.000336329 -0.000214215 -9.85582e-05 1.15247 0.00017555 
88 3.80989e-05 -2.04671e-05 -3.21345e-05 0 0.000197448 -0.000125759 -0.000100244 0.892469 9.37147e-05 
92 0 0 0 0 0 0 0 0 0 
96 0 0 0 0 0 0 0 0 0 
100 0 0 0 0 0 0 0 0 0 
104 0 0 0 0 0 0 0 0 0 
108 0.000143158 -7.69051e-05 -0.000120746 0 0.000329045 -0.000209574 0.000177842 1.08215 9.06811e-05 
112 0.000184071 -9.88838e-05 -0.000155255 0 0.0002515 -0.000160183 7.1629e-05 0.624229 4.97025e-05 
116 0.000107496 -5.77476e-05 -9.0667e-05 0 0.000329816 -0.000210066 0.000339839 0.766767 7.93614e-05 
120 0 0 0 0 0 0 0 0 0 
124 0 0 0 0 0 0 0 0 0 
128 0 0 0 0 0 0 0 0 0 
132 0 0 0 0 0 0 0 0 0 
