ITEM: TIMESTEP
20000
ITEM: NUMBER OF SURFS
134
ITEM: BOX BOUNDS oo ao pp
-10 10
0 10
-0.5 0.5
ITEM: SURFS id f_avg_pressure[1] f_avg_pressure[2] f_avg_pressure[3] f_avg_pressure[4] f_avg_shear[1] f_avg_shear[2] f_avg_shear[3] f_avg_heat_flux[*] f_avg_fdrag[*] 
1 0.966187 0.965554 0.0349507 0 0.000800876 -0.0221251 -0.00166825 2941.43 0.00748701 
5 0.844639 0.844635 -0.00280545 0 8.69875e-05 0.0261893 -0.00226532 2531.38 0.0589251 
9 0.52708 0.526596 -0.0225795 0 0.00201562 0.0470079 -0.00225177 1566.92 0.0696486 
13 0.354379 0.353178 -0.0291554 0 0.00372557 0.0451302 -0.00073072 1045.65 0.0691158 
17 0.28886 0.286718 -0.0351156 0 0.00534883 0.0436731 0.000867294 857.651 0.0745788 
21 0.278468 0.27485 -0.0447436 0 0.0068686 0.0421922 0.0019628 833.176 0.0892334 
25 0.293646 0.28774 -0.0585965 0 0.010395 0.0510447 0.0027075 887.331 0.112621 
29 0.336375 0.326701 -0.0800921 0 0.0176321 0.0719227 0.00140277 1026.08 0.150908 
33 0.323397 0.310809 -0.0893489 0 0.0241723 0.0840858 2.43978e-05 1010.63 0.166888 
37 0.299661 0.284503 -0.0941023 0 0.0288916 0.087349 0.000176764 936.882 0.174701 
41 0.266449 0.249468 -0.0935994 0 0.0332658 0.0886624 0.00236455 863.432 0.174145 
45 0.234684 0.2163 -0.0910554 0 0.0357199 0.0848516 -0.000450194 752.093 0.169747 
49 0.247626 0.224254 -0.105018 0 0.0461459 0.0985389 -0.0032136 826.388 0.197452 
53 0.0659495 0.0311674 -0.05812 0 0.0873929 0.0468653 -0.0010996 381.246 0.0897596 
57 0.00114343 -0.00031812 -0.00109828 0 0.00160276 -0.000464243 -2.37631e-05 5.24035 0.00098034 
61 0.000322585 -0.000173296 -0.000272085 0 0.000470566 -0.000299712 0.000204973 1.73178 0.000225583 
65 2.75518e-05 -1.4801e-05 -2.32385e-05 0 4.94125e-05 -3.14717e-05 3.69974e-05 0.233511 2.50888e-05 
69 6.11504e-05 -3.28499e-05 -5.15776e-05 0 9.90572e-05 -6.30898e-05 8.18187e-05 0.380832 4.57431e-05 
73 0 0 0 0 0 0 0 0 0 
77 9.70108e-05 -5.21141e-05 -8.18243e-05 0 0.00017118 -0.000109025 0.000222871 0.561643 7.41732e-05 
81 0 0 0 0 0 0 0 0 0 
85 4.69223e-05 -2.52071e-05 -3.95765e-05 0 0.000168735 -0.000107471 -1.28623e-05 0.811072 7.9658e-05 
89 1.87556e-05 -1.00757e-05 -1.58193e-05 0 0.000109301 -6.96162e-05 -7.77658e-05 0.173742 5.16998e-05 
93 6.25016e-05 -3.35772e-05 -5.27165e-05 0 0.000245918 -0.000156635 0.000142504 0.918878 0.000103421 
97 0 0 0 0 0 0 0 0 0 
101 5.33096e-05 -2.86382e-05 -4.4964e-05 0 2.00252e-05 -1.27543e-05 2.78448e-05 -0.00827856 -3.60973e-06 
105 0 0 0 0 0 0 0 0 0 
109 0 0 0 0 0 0 0 0 0 
113 0 0 0 0 0 0 0 0 0 
117 0 0 0 0 0 0 0 0 0 
121 0 0 0 0 0 0 0 0 0 
125 0 0 0 0 0 0 0 0 0 
129 0 0 0 0 0 0 0 0 0 
133 0 0 0 0 0 0 0 0 0 
2 0.958775 0.958444 0.0252081 0 0.000207238 -0.00787945 0.000129341 2904.63 0.0222843 
6 0.733534 0.73347 -0.00968512 0 0.000495405 0.0375179 -0.000997516 2174.74 0.0625791 
10 0.500153 0.499458 -0.0263574 0 0.00267321 0.0506558 -0.000786773 1484.08 0.0739365 
14 0.346551 0.345079 -0.0319158 0 0.00398948 0.0431348 0.000921189 1030.37 0.0729901 
18 0.274866 0.272483 -0.0361084 0 0.00515495 0.0389006 -0.000786899 803.869 0.0751647 
22 0.273383 0.269383 -0.0465958 0 0.00786518 0.0454707 -0.00295432 826.824 0.0920567 
26 0.299436 0.29281 -0.0626459 0 0.0120726 0.0564278 0.00032586 914.315 0.119795 
30 0.33435 0.323933 -0.0828109 0 0.019493 0.0762513 -0.00109667 1037.74 0.155676 
34 0.317663 0.304418 -0.0907725 0 0.0258829 0.086802 -0.000581875 1002.26 0.169467 
38 0.281307 0.266191 -0.0909714 0 0.02817 0.0824282 -0.00180984 878.177 0.168418 
42 0.258412 0.241035 -0.0931613 0 0.0333852 0.0863772 0.00268486 829.742 0.172999 
46 0.238261 0.218672 -0.0946094 0 0.0385217 0.0890358 0.00287774 776.618 0.176904 
50 0.211573 0.185883 -0.101049 0 0.0505616 0.0930095 0.000634805 733.563 0.17174 
54 0.0367208 0.0108057 -0.035095 0 0.0778595 0.0239727 -0.000246669 296.462 0.0676277 
58 0.000182294 -8.34509e-05 -0.000162071 0 0.000286765 -0.000147657 6.87661e-05 0.596942 0.000154043 
62 0.000275967 -0.000148252 -0.000232765 0 0.000510972 -0.000325446 -0.000105162 1.5879 0.000272168 
66 6.59355e-05 -3.54203e-05 -5.56138e-05 0 0.000156924 -9.99443e-05 1.88932e-05 0.358535 8.70439e-05 
70 0.000162642 -8.73727e-05 -0.00013718 0 0.000184276 -0.000117368 -0.000181363 0.419152 6.61268e-05 
74 0 0 0 0 0 0 0 0 0 
78 9.85779e-05 -5.29583e-05 -8.31446e-05 0 0.000196758 -0.000125323 -7.08204e-05 0.71406 8.83593e-05 
82 0.000208054 -0.000111771 -0.000175481 0 0.000274692 -0.000174962 1.77348e-05 0.614994 9.45729e-05 
86 6.07593e-05 -3.26406e-05 -5.12473e-05 0 1.00716e-06 -6.41486e-07 1.91942e-05 -0.00787614 -1.72883e-05 
90 0 0 0 0 0 0 0 0 0 
94 0 0 0 0 0 0 0 0 0 
98 0 0 0 0 0 0 0 0 0 
102 9.107e-05 -4.89233e-05 -7.68132e-05 0 0.000162876 -0.000103738 0.000169363 0.480561 4.67899e-05 
106 3.86441e-05 -2.07598e-05 -3.25944e-05 0 6.51814e-05 -4.15149e-05 2.02001e-06 0.0388784 1.67306e-05 
110 0.000217881 -0.000117046 -0.000183772 0 0.000516014 -0.000328655 -0.000358501 1.80785 0.00013671 
114 0 0 0 0 0 0 0 0 0 
118 0 0 0 0 0 0 0 0 0 
122 0 0 0 0 0 0 0 0 0 
126 0 0 0 0 0 0 0 0 0 
130 0 0 0 0 0 0 0 0 0 
134 0 0 0 0 0 0 0 0 0 
3 0.931232 0.931107 0.0152929 0 -9.45822e-05 0.00575864 -0.00105235 2819.27 0.0360741 
7 0.67212 0.671941 -0.0155188 0 0.00101252 0.0438409 -0.000379301 1995.65 0.0678098 
11 0.42284 0.422012 -0.0264547 0 0.00278482 0.0444241 0.00152137 1248.11 0.0691251 
15 0.31722 0.315567 -0.032337 0 0.00451463 0.0440569 -0.00113728 944.394 0.0718688 
19 0.265237 0.262581 -0.0374398 0 0.00594995 0.0417294 0.00482916 780.503 0.0768241 
23 0.26115 0.256877 -0.0470447 0 0.00815047 0.0445038 -0.00367247 772.555 0.0920445 
27 0.321572 0.313775 -0.0703849 0 0.0142151 0.0633709 -0.000164694 985.001 0.133843 
31 0.331741 0.320577 -0.0853379 0 0.0216889 0.0814754 0.00163353 1026.07 0.160285 
35 0.316786 0.302668 -0.0935181 0 0.026738 0.0865364 0.00143624 1001.5 0.173897 
39 0.278992 0.263096 -0.0928287 0 0.0307407 0.0871254 -0.00171694 891.498 0.172419 
43 0.263232 0.244581 -0.0973203 0 0.0369735 0.0929202 -0.00104179 848.072 0.181562 
47 0.228314 0.208637 -0.092725 0 0.0393317 0.0884986 0.00154238 754.076 0.174075 
51 0.168555 0.129841 -0.107481 0 0.0796915 0.0962702 -0.000642534 660.901 0.154743 
55 0.00930647 0.00097679 -0.00925506 0 0.031636 0.0033389 0.00033681 113.034 0.0249718 
59 0.000147565 -7.92733e-05 -0.000124464 0 0.00017887 -0.000113926 -6.085e-05 0.649992 7.72707e-05 
63 0.000186903 -0.000100404 -0.000157644 0 0.000157948 -0.000100598 -1.76348e-05 0.431469 4.26902e-05 
67 0.000174314 -9.3643e-05 -0.000147025 0 0.000320941 -0.000204413 -9.32272e-05 0.984753 0.0001609 
71 0.000102849 -5.52523e-05 -8.67475e-05 0 0.000239986 -0.000152855 -6.60046e-05 0.511498 0.000124497 
75 0.000134187 -7.20868e-05 -0.00011318 0 0.000144627 -9.21165e-05 -1.36803e-05 0.291216 4.64222e-05 
79 7.59271e-05 -4.07887e-05 -6.40407e-05 0 0.000119224 -7.59356e-05 -2.03587e-05 0.48194 4.75283e-05 
83 7.43929e-06 -3.99637e-06 -6.27471e-06 0 4.88115e-05 -3.10881e-05 -8.71457e-06 0.268588 2.56341e-05 
87 0 0 0 0 0 0 0 0 0 
91 0 0 0 0 0 0 0 0 0 
95 3.73824e-05 -2.0082e-05 -3.15302e-05 0 8.8757e-05 -5.65305e-05 -9.31917e-05 0.11024 3.22816e-05 
99 0.000148416 -7.97301e-05 -0.000125182 0 0.000325324 -0.000207203 0.000124212 1.00151 0.000107101 
103 0 0 0 0 0 0 0 0 0 
107 0 0 0 0 0 0 0 0 0 
111 0 0 0 0 0 0 0 0 0 
115 0 0 0 0 0 0 0 0 0 
119 0 0 0 0 0 0 0 0 0 
123 0 0 0 0 0 0 0 0 0 
127 0 0 0 0 0 0 0 0 0 
131 0 0 0 0 0 0 0 0 0 
4 0.882318 0.8823 0.00577239 0 -0.000110379 0.0168713 -0.00298784 2649.65 0.0478601 
8 0.615444 0.61511 -0.0202807 0 0.00143683 0.0435788 0.00168787 1831.81 0.071682 
12 0.410866 0.409787 -0.0297501 0 0.0033821 0.0465862 0.000639816 1202.38 0.0736246 
16 0.293214 0.291377 -0.0327704 0 0.00423186 0.0376275 -0.00149349 861.295 0.070931 
20 0.270754 0.267654 -0.0408601 0 0.00646651 0.0423588 -0.0013489 806.517 0.0826275 
24 0.292713 0.287389 -0.0555717 0 0.0103678 0.0536171 -0.00422141 884.398 0.107948 
28 0.330186 0.321452 -0.0754391 0 0.0166488 0.0709422 -0.000296174 1017.96 0.143079 
32 0.325802 0.313995 -0.0869133 0 0.0223835 0.0808659 -0.000956878 1008.75 0.16256 
36 0.314228 0.299293 -0.0957238 0 0.0295946 0.0925315 0.00128629 1001.37 0.178485 
40 0.28118 0.264223 -0.0961678 0 0.0337796 0.0928103 5.46923e-05 892.493 0.179215 
44 0.251284 0.232549 -0.0952082 0 0.0357895 0.0874171 0.00109556 807.959 0.176898 
48 0.225226 0.204903 -0.0934965 0 0.040283 0.0882822 -0.000377603 736.573 0.17559 
52 0.107732 0.0682242 -0.083376 0 0.0871468 0.0713098 -0.00192806 486.975 0.116359 
56 0.00248575 -0.0002195 -0.00247604 0 0.00383277 -0.000339773 -0.00013447 12.1379 0.00276704 
60 8.74245e-05 -4.69655e-05 -7.3738e-05 0 0.000187324 -0.000119311 -3.13281e-05 0.333335 0.000107705 
64 0.000614526 -0.000330139 -0.000518315 0 0.00134866 -0.000859025 0.000216099 4.15511 0.000746958 
68 9.82301e-06 -5.27713e-06 -8.28514e-06 0 2.91301e-05 -1.85541e-05 -6.71283e-06 0.0410189 1.66827e-05 
72 5.16486e-05 -2.7746e-05 -4.35631e-05 0 7.34465e-05 -4.67792e-05 -3.03775e-05 0.285298 3.04098e-05 
76 0.00041895 -0.000225064 -0.000353363 0 0.000548272 -0.000349206 0.000332444 1.66505 0.000204087 
80 0 0 0 0 0 0 0 0 0 
84 3.95508e-05 -2.12471e-05 -3.33591e-05 0 0.000288282 -0.000183613 -8.44784e-05 0.987829 0.000150472 
88 3.26562e-05 -1.75432e-05 -2.75438e-05 0 0.000169242 -0.000107793 -8.59231e-05 0.764973 8.03269e-05 
92 0 0 0 0 0 0 0 0 0 
96 0 0 0 0 0 0 0 0 0 
100 0 0 0 0 0 0 0 0 0 
104 0 0 0 0 0 0 0 0 0 
108 0.000122706 -6.59186e-05 -0.000103497 0 0.000282039 -0.000179634 0.000152436 0.927555 7.77267e-05 
112 0.000157775 -8.47575e-05 -0.000133075 0 0.000215571 -0.0001373 6.13963e-05 0.535054 4.26021e-05 
116 9.2139e-05 -4.94979e-05 -7.77146e-05 0 0.000282699 -0.000180056 0.00029129 0.657229 6.80241e-05 
120 0 0 0 0 0 0 0 0 0 
124 0 0 0 0 0 0 0 0 0 
128 0 0 0 0 0 0 0 0 0 
132 0 0 0 0 0 0 0 0 0 
