ITEM: TIMESTEP
17000
ITEM: NUMBER OF SURFS
134
ITEM: BOX BOUNDS oo ao pp
-10 10
0 10
-0.5 0.5
ITEM: SURFS id f_avg_pressure[1] f_avg_pressure[2] f_avg_pressure[3] f_avg_pressure[4] f_avg_shear[1] f_avg_shear[2] f_avg_shear[3] f_avg_heat_flux[*] f_avg_fdrag[*] 
1 1.01467 1.01401 0.0367047 0 0.00105498 -0.029145 -0.00131926 3115.09 0.0078644 
5 0.849369 0.849364 -0.00282115 0 9.5079e-05 0.0286254 -0.00318 2547.7 0.0592556 
9 0.518934 0.518458 -0.0222306 0 0.00197915 0.0461574 -0.00246299 1553.81 0.0685716 
13 0.345591 0.34442 -0.0284324 0 0.00363955 0.0440882 -0.000869893 1010.4 0.0674031 
17 0.291652 0.289489 -0.0354549 0 0.00543735 0.0443959 0.00209345 873.096 0.0753088 
21 0.272017 0.268483 -0.0437071 0 0.00698245 0.0428916 0.00245763 813.331 0.0872529 
25 0.297724 0.291736 -0.0594102 0 0.0102453 0.0503097 -0.0013523 905.258 0.114074 
29 0.338525 0.328789 -0.080604 0 0.0173803 0.0708954 0.00197375 1039.18 0.151713 
33 0.322167 0.309627 -0.0890092 0 0.0241591 0.0840398 0.00118976 999.355 0.166293 
37 0.317789 0.301713 -0.0997947 0 0.0304282 0.0919947 0.00156186 998.182 0.185151 
41 0.257214 0.240822 -0.0903555 0 0.0320102 0.0853159 0.00205693 834.994 0.168047 
45 0.222034 0.204641 -0.0861474 0 0.0338673 0.080451 0.00027592 713.155 0.160647 
49 0.248112 0.224694 -0.105224 0 0.0459666 0.0981559 -0.000880516 830.675 0.197643 
53 0.0666496 0.0314982 -0.0587369 0 0.0884452 0.0474296 -0.00117668 388.115 0.0908067 
57 0.00079221 -0.000220405 -0.000760932 0 0.00124136 -0.000359562 -0.000178767 3.47248 0.000779112 
61 0.000387845 -0.000208354 -0.000327128 0 0.000668325 -0.000425668 0.000307096 2.5347 0.000349047 
65 4.82156e-05 -2.59018e-05 -4.06675e-05 0 8.64719e-05 -5.50755e-05 6.47455e-05 0.408645 4.39055e-05 
69 8.15976e-05 -4.38342e-05 -6.8824e-05 0 0.000125797 -8.01203e-05 0.000147202 0.563647 5.66285e-05 
73 0 0 0 0 0 0 0 0 0 
77 0 0 0 0 0 0 0 0 0 
81 0 0 0 0 0 0 0 0 0 
85 8.2114e-05 -4.41124e-05 -6.92589e-05 0 0.000295287 -0.000188074 -2.2509e-05 1.41938 0.000139401 
89 0 0 0 0 0 0 0 0 0 
93 0.000109378 -5.87602e-05 -9.22538e-05 0 0.000430356 -0.000274111 0.000249381 1.60804 0.000180987 
97 0 0 0 0 0 0 0 0 0 
101 0 0 0 0 0 0 0 0 0 
105 0 0 0 0 0 0 0 0 0 
109 0 0 0 0 0 0 0 0 0 
113 0 0 0 0 0 0 0 0 0 
117 0 0 0 0 0 0 0 0 0 
121 0 0 0 0 0 0 0 0 0 
125 0 0 0 0 0 0 0 0 0 
129 0 0 0 0 0 0 0 0 0 
133 0 0 0 0 0 0 0 0 0 
2 0.973223 0.972887 0.025588 0 0.00049067 -0.0186559 -0.000945718 2969.72 0.0226266 
6 0.740323 0.740258 -0.00977475 0 0.000480652 0.0364006 -0.00139465 2201.15 0.0631566 
10 0.490056 0.489375 -0.0258253 0 0.00261853 0.0496197 -0.000159549 1458.11 0.0724437 
14 0.320805 0.319441 -0.0295447 0 0.00379503 0.0410324 0.00277242 953.389 0.0675887 
18 0.274962 0.272579 -0.036121 0 0.00506111 0.0381925 0.0022339 798.014 0.0751651 
22 0.276469 0.272423 -0.0471217 0 0.00794961 0.0459588 -0.0021624 842.281 0.0930943 
26 0.295229 0.288696 -0.0617657 0 0.0121005 0.0565583 -0.000155475 898.676 0.118189 
30 0.331655 0.321322 -0.0821434 0 0.0191115 0.0747587 0.00064486 1023.98 0.15432 
34 0.311794 0.298793 -0.0890952 0 0.025864 0.0867384 0.000144481 989.854 0.166571 
38 0.275741 0.260924 -0.0891715 0 0.0277447 0.0811837 -0.00107782 858.09 0.165162 
42 0.259481 0.242032 -0.0935465 0 0.0337821 0.0874039 0.00251711 842.201 0.173878 
46 0.230508 0.211557 -0.0915309 0 0.0368385 0.0851454 0.00485671 739.421 0.170852 
50 0.217848 0.191396 -0.104046 0 0.0523469 0.0962936 -7.77978e-05 759.105 0.177041 
54 0.036526 0.0107483 -0.0349088 0 0.0781829 0.0240723 -6.04831e-05 299.83 0.0678307 
58 0.000114532 -5.24308e-05 -0.000101826 0 0.000183043 -9.42493e-05 9.13259e-05 0.393599 9.89594e-05 
62 0.000272922 -0.000146616 -0.000230197 0 0.000571868 -0.000364232 -0.000175433 1.83301 0.000319088 
66 1.91003e-05 -1.02606e-05 -1.61103e-05 0 9.06795e-05 -5.77535e-05 -8.14483e-06 0.330002 5.76114e-05 
70 0.000233568 -0.000125475 -0.000197003 0 0.00028851 -0.000183757 -0.000347266 0.704458 0.000111256 
74 0 0 0 0 0 0 0 0 0 
78 0.000110211 -5.9208e-05 -9.29568e-05 0 0.000224609 -0.000143063 -6.97262e-05 0.69838 0.000101632 
82 0.000234399 -0.000125924 -0.000197701 0 0.000384021 -0.000244599 -1.49749e-05 0.913997 0.000149821 
86 0 0 0 0 0 0 0 0 0 
90 0 0 0 0 0 0 0 0 0 
94 0 0 0 0 0 0 0 0 0 
98 0 0 0 0 0 0 0 0 0 
102 0 0 0 0 0 0 0 0 0 
106 6.76271e-05 -3.63297e-05 -5.70402e-05 0 0.000114067 -7.26511e-05 3.53502e-06 0.0680373 2.92786e-05 
110 0.000381291 -0.000204831 -0.000321601 0 0.000903025 -0.000575147 -0.000627377 3.16373 0.000239242 
114 0 0 0 0 0 0 0 0 0 
118 0 0 0 0 0 0 0 0 0 
122 0 0 0 0 0 0 0 0 0 
126 0 0 0 0 0 0 0 0 0 
130 0 0 0 0 0 0 0 0 0 
134 0 0 0 0 0 0 0 0 0 
3 0.9624 0.96227 0.0158047 0 -7.21666e-05 0.00439386 -0.000313741 2938.19 0.0372825 
7 0.67667 0.676489 -0.0156238 0 0.00102774 0.0444999 -0.000107393 1999.06 0.0682696 
11 0.433957 0.433107 -0.0271502 0 0.00295096 0.0470743 0.00270409 1289.91 0.0709576 
15 0.320253 0.318585 -0.0326463 0 0.00445467 0.0434717 -0.000629328 947.795 0.072533 
19 0.266831 0.264159 -0.0376649 0 0.00616387 0.0432297 0.00254758 789.55 0.0773368 
23 0.266066 0.261713 -0.0479304 0 0.00862148 0.0470757 -0.00284321 787.761 0.0938876 
27 0.31421 0.306591 -0.0687735 0 0.0143373 0.0639156 8.10091e-05 968.248 0.130962 
31 0.327882 0.316848 -0.0843453 0 0.0221347 0.0831501 0.001077 1015.18 0.158747 
35 0.320134 0.305866 -0.0945064 0 0.0266779 0.0863418 0.000220607 1014.09 0.175554 
39 0.285013 0.268774 -0.0948322 0 0.0320113 0.0907265 0.000211361 919.148 0.176497 
43 0.278861 0.259102 -0.103098 0 0.0384726 0.0966876 -0.00190595 895.733 0.191892 
47 0.229774 0.209971 -0.0933179 0 0.0398857 0.0897451 0.00261262 749.349 0.175401 
51 0.168292 0.129638 -0.107313 0 0.079533 0.0960788 -0.00128294 658.464 0.154476 
55 0.00758584 0.000796196 -0.00754394 0 0.026308 0.00277658 0.000337184 92.0133 0.0207538 
59 0.000136339 -7.32427e-05 -0.000114995 0 0.000116042 -7.39093e-05 -7.47858e-05 0.459274 3.32052e-05 
63 0.000161762 -8.68984e-05 -0.000136439 0 0.000231152 -0.000147221 -0.000103911 0.650102 0.000107017 
67 0.00028304 -0.000152052 -0.00023873 0 0.000459264 -0.000292514 -0.000183808 1.38772 0.000217471 
71 0.000142487 -7.65463e-05 -0.00012018 0 0.000192011 -0.000122298 -3.03029e-05 0.191805 7.78149e-05 
75 0.000196599 -0.000105615 -0.000165821 0 0.000126193 -8.03752e-05 6.16316e-05 0.0613415 1.31685e-05 
79 0 0 0 0 0 0 0 0 0 
83 0 0 0 0 0 0 0 0 0 
87 0 0 0 0 0 0 0 0 0 
91 0 0 0 0 0 0 0 0 0 
95 0 0 0 0 0 0 0 0 0 
99 0.000259729 -0.000139528 -0.000219068 0 0.000569317 -0.000362605 0.000217372 1.75264 0.000187426 
103 0 0 0 0 0 0 0 0 0 
107 0 0 0 0 0 0 0 0 0 
111 0 0 0 0 0 0 0 0 0 
115 0 0 0 0 0 0 0 0 0 
119 0 0 0 0 0 0 0 0 0 
123 0 0 0 0 0 0 0 0 0 
127 0 0 0 0 0 0 0 0 0 
131 0 0 0 0 0 0 0 0 0 
4 0.891796 0.891777 0.00583439 0 -0.000114612 0.0175182 -0.00395903 2681.03 0.0483741 
8 0.592707 0.592385 -0.0195315 0 0.00139285 0.0422449 0.00029849 1754.96 0.0690348 
12 0.40927 0.408196 -0.0296345 0 0.00340459 0.046896 -0.000477372 1198.07 0.0733451 
16 0.285746 0.283956 -0.0319357 0 0.00384891 0.0342225 -0.00203062 836.316 0.0690583 
20 0.272165 0.269048 -0.041073 0 0.00700736 0.0459016 -0.00055565 813.37 0.0832109 
24 0.287757 0.282524 -0.0546309 0 0.0102929 0.05323 -0.00549703 874.659 0.106157 
28 0.319922 0.31146 -0.073094 0 0.0160715 0.0684821 -0.000402829 978.274 0.138606 
32 0.326634 0.314797 -0.0871353 0 0.0221826 0.0801399 -0.00166883 1008.43 0.16285 
36 0.325505 0.310034 -0.0991591 0 0.0310617 0.0971184 0.00198978 1044.91 0.185111 
40 0.277838 0.261083 -0.0950247 0 0.0329585 0.0905543 0.00135688 873.069 0.176832 
44 0.237402 0.219702 -0.0899486 0 0.0347022 0.0847613 4.35281e-05 771.247 0.167712 
48 0.206569 0.187929 -0.0857516 0 0.0370209 0.0811332 -0.00243164 669.439 0.161098 
52 0.108095 0.0684544 -0.0836573 0 0.0872491 0.0713935 -0.00294538 490.65 0.116608 
56 0.00218542 -0.000192979 -0.00217688 0 0.00340355 -0.000301723 -0.000208845 10.2506 0.00245865 
60 2.60218e-05 -1.39792e-05 -2.1948e-05 0 9.21399e-05 -5.86861e-05 2.9551e-05 0.125369 5.99773e-05 
64 0.00104578 -0.000561819 -0.00088205 0 0.00227929 -0.00145179 0.000452269 7.04981 0.00125955 
68 1.71903e-05 -9.23498e-06 -1.4499e-05 0 5.09777e-05 -3.24697e-05 -1.17474e-05 0.071783 2.91948e-05 
72 5.78452e-05 -3.10748e-05 -4.87895e-05 0 7.38772e-05 -4.70535e-05 -9.67727e-05 0.324041 2.84813e-05 
76 0.00059846 -0.000321499 -0.000504771 0 0.000699157 -0.000445307 0.000540039 2.27808 0.000238469 
80 0 0 0 0 0 0 0 0 0 
84 0 0 0 0 0 0 0 0 0 
88 5.71483e-05 -3.07006e-05 -4.82017e-05 0 0.000296173 -0.000188638 -0.000150365 1.3387 0.000140572 
92 0 0 0 0 0 0 0 0 0 
96 0 0 0 0 0 0 0 0 0 
100 0 0 0 0 0 0 0 0 0 
104 0 0 0 0 0 0 0 0 0 
108 0 0 0 0 0 0 0 0 0 
112 0.000276106 -0.000148326 -0.000232882 0 0.000377249 -0.000240275 0.000107444 0.936344 7.45537e-05 
116 0.000161243 -8.66214e-05 -0.000136001 0 0.000494723 -0.000315099 0.000509758 1.15015 0.000119042 
120 0 0 0 0 0 0 0 0 0 
124 0 0 0 0 0 0 0 0 0 
128 0 0 0 0 0 0 0 0 0 
132 0 0 0 0 0 0 0 0 0 
