ITEM: TIMESTEP
16000
ITEM: NUMBER OF SURFS
134
ITEM: BOX BOUNDS oo ao pp
-10 10
0 10
-0.5 0.5
ITEM: SURFS id f_avg_pressure[1] f_avg_pressure[2] f_avg_pressure[3] f_avg_pressure[4] f_avg_shear[1] f_avg_shear[2] f_avg_shear[3] f_avg_heat_flux[*] f_avg_fdrag[*] 
1 0.913281 0.912683 0.0330369 0 0.000951848 -0.0262959 -0.00279762 2770.03 0.00707855 
5 0.835371 0.835367 -0.00277466 0 9.49892e-05 0.0285984 -0.00294997 2491.66 0.0582792 
9 0.53142 0.530932 -0.0227655 0 0.00202341 0.0471896 -0.00205206 1603.82 0.070221 
13 0.349294 0.34811 -0.028737 0 0.00359983 0.0436071 0.000931931 1027.24 0.06811 
17 0.283008 0.280909 -0.0344041 0 0.00538185 0.0439427 0.0047792 845.6 0.0731038 
21 0.266032 0.262575 -0.0427454 0 0.00712871 0.0437901 0.0016886 794.971 0.0854279 
25 0.293685 0.287779 -0.0586044 0 0.00984741 0.048356 -0.00340342 883.264 0.112429 
29 0.334198 0.324586 -0.0795737 0 0.0168739 0.0688299 0.00109959 1019.8 0.149649 
33 0.325955 0.313268 -0.0900558 0 0.0239877 0.0834437 0.00109001 1012.13 0.168021 
37 0.321214 0.304965 -0.100871 0 0.0315494 0.0953844 0.0010926 1015.77 0.18759 
41 0.262002 0.245305 -0.0920374 0 0.032003 0.0852966 0.00113965 848.51 0.170803 
45 0.222644 0.205203 -0.0863838 0 0.0346089 0.0822127 0.00309008 721.141 0.161525 
49 0.245268 0.222118 -0.104018 0 0.0450239 0.0961431 -0.00108541 819.063 0.195074 
53 0.0683242 0.0322896 -0.0602127 0 0.0912533 0.0489354 -0.00135065 398.402 0.0935318 
57 0.000869133 -0.000241806 -0.000834818 0 0.00141574 -0.000410071 -0.00020511 4.01832 0.000895854 
61 0.000383776 -0.000206167 -0.000323695 0 0.000765962 -0.000487855 0.000296995 2.96891 0.000424798 
65 6.42875e-05 -3.45358e-05 -5.42233e-05 0 0.000115296 -7.3434e-05 8.63274e-05 0.54486 5.85406e-05 
69 0 0 0 0 0 0 0 0 0 
73 0 0 0 0 0 0 0 0 0 
77 0 0 0 0 0 0 0 0 0 
81 0 0 0 0 0 0 0 0 0 
85 0.000109485 -5.88166e-05 -9.23452e-05 0 0.000393716 -0.000250766 -3.0012e-05 1.8925 0.000185869 
89 0 0 0 0 0 0 0 0 0 
93 0.000145837 -7.83469e-05 -0.000123005 0 0.000573808 -0.000365481 0.000332509 2.14405 0.000241316 
97 0 0 0 0 0 0 0 0 0 
101 0 0 0 0 0 0 0 0 0 
105 0 0 0 0 0 0 0 0 0 
109 0 0 0 0 0 0 0 0 0 
113 0 0 0 0 0 0 0 0 0 
117 0 0 0 0 0 0 0 0 0 
121 0 0 0 0 0 0 0 0 0 
125 0 0 0 0 0 0 0 0 0 
129 0 0 0 0 0 0 0 0 0 
133 0 0 0 0 0 0 0 0 0 
2 1.00997 1.00962 0.026554 0 0.000567329 -0.0215705 -0.000382847 3098.76 0.0234822 
6 0.745982 0.745917 -0.00984948 0 0.000492963 0.0373329 -0.00185995 2225.82 0.0636401 
10 0.485737 0.485062 -0.0255977 0 0.00260387 0.0493418 0.0013119 1440.41 0.0718066 
14 0.320678 0.319315 -0.029533 0 0.00375314 0.0405795 0.00163406 959.057 0.0675535 
18 0.269884 0.267546 -0.035454 0 0.00490042 0.0369799 0.00296701 785.865 0.073759 
22 0.267823 0.263904 -0.0456482 0 0.00744361 0.0430335 -0.00230561 811.303 0.0900976 
26 0.298624 0.292016 -0.062476 0 0.0127446 0.059569 0.00069907 913.811 0.119747 
30 0.340044 0.329449 -0.084221 0 0.0195797 0.0765904 0.00106351 1060.25 0.158216 
34 0.306933 0.294135 -0.0877062 0 0.0252461 0.0846663 0.00219447 972.534 0.163864 
38 0.288777 0.273259 -0.0933871 0 0.0284162 0.0831485 -0.000354749 903.664 0.172604 
42 0.256674 0.239414 -0.0925346 0 0.0333499 0.0862859 0.00325923 828.078 0.171955 
46 0.226214 0.207615 -0.0898256 0 0.0363312 0.0839728 0.00367177 727.078 0.167792 
50 0.219826 0.193133 -0.10499 0 0.0533377 0.0981163 -8.53961e-05 765.185 0.179023 
54 0.0384834 0.0113243 -0.0367795 0 0.0839066 0.0258346 -0.000239269 323.404 0.0726357 
58 0.00015271 -6.99078e-05 -0.000135769 0 0.000244057 -0.000125666 0.000121768 0.524799 0.000131946 
62 0.000363897 -0.000195488 -0.000306929 0 0.00076249 -0.000485642 -0.000233911 2.44401 0.000425451 
66 2.54671e-05 -1.36808e-05 -2.14804e-05 0 0.000120906 -7.70047e-05 -1.08598e-05 0.440003 7.68151e-05 
70 0.000311424 -0.0001673 -0.000262671 0 0.00038468 -0.00024501 -0.000463022 0.939277 0.000148341 
74 0 0 0 0 0 0 0 0 0 
78 0 0 0 0 0 0 0 0 0 
82 0.000312531 -0.000167899 -0.000263602 0 0.000512028 -0.000326132 -1.99665e-05 1.21866 0.000199762 
86 0 0 0 0 0 0 0 0 0 
90 0 0 0 0 0 0 0 0 0 
94 0 0 0 0 0 0 0 0 0 
98 0 0 0 0 0 0 0 0 0 
102 0 0 0 0 0 0 0 0 0 
106 9.01695e-05 -4.84396e-05 -7.60536e-05 0 0.00015209 -9.68681e-05 4.71336e-06 0.0907164 3.90381e-05 
110 0.000508388 -0.000273108 -0.000428801 0 0.00120403 -0.000766862 -0.000836503 4.21831 0.000318989 
114 0 0 0 0 0 0 0 0 0 
118 0 0 0 0 0 0 0 0 0 
122 0 0 0 0 0 0 0 0 0 
126 0 0 0 0 0 0 0 0 0 
130 0 0 0 0 0 0 0 0 0 
134 0 0 0 0 0 0 0 0 0 
3 0.983 0.982868 0.016143 0 -3.02355e-05 0.00184089 -0.0027547 3015.7 0.0380822 
7 0.669493 0.669315 -0.0154581 0 0.00103283 0.0447202 -0.00202807 1982.64 0.0675472 
11 0.444114 0.443244 -0.0277857 0 0.00298801 0.0476654 0.00326295 1326.31 0.0726132 
15 0.330475 0.328753 -0.0336882 0 0.00450063 0.0439203 0.000534539 983.751 0.0748263 
19 0.265293 0.262636 -0.0374477 0 0.00619767 0.0434668 0.00212391 786.015 0.0769108 
23 0.267874 0.263491 -0.0482561 0 0.00900837 0.0491882 -0.00369425 795.797 0.0946396 
27 0.323991 0.316135 -0.0709143 0 0.0146704 0.0654005 0.00171745 998.649 0.134992 
31 0.332663 0.321468 -0.0855753 0 0.022428 0.084252 -0.000102075 1023.78 0.161049 
35 0.323575 0.309154 -0.0955223 0 0.0276485 0.0894833 -0.00139077 1024.67 0.177802 
39 0.287465 0.271086 -0.095648 0 0.0320295 0.0907783 -4.49829e-06 931.447 0.177864 
43 0.277983 0.258287 -0.102774 0 0.0380423 0.0956062 -0.00238367 889.441 0.191089 
47 0.219997 0.201037 -0.0893474 0 0.0378228 0.0851035 0.00180314 707.999 0.167681 
51 0.171181 0.131864 -0.109155 0 0.0804183 0.0971481 -0.000863022 667.79 0.156773 
55 0.00766733 0.00080475 -0.00762499 0 0.0257197 0.00271449 0.000423053 89.6906 0.0203099 
59 0.000181786 -9.76569e-05 -0.000153327 0 0.000154723 -9.85457e-05 -9.97144e-05 0.612365 4.42736e-05 
63 0.000215682 -0.000115865 -0.000181918 0 0.000308202 -0.000196295 -0.000138548 0.866802 0.000142689 
67 0.000377387 -0.000202735 -0.000318307 0 0.000612352 -0.000390018 -0.000245077 1.85029 0.000289961 
71 8.3498e-05 -4.48566e-05 -7.04259e-05 0 0.00018499 -0.000117826 -9.79478e-06 0.139387 9.44397e-05 
75 0.000262132 -0.00014082 -0.000221094 0 0.000168257 -0.000107167 8.21754e-05 0.0817886 1.7558e-05 
79 0 0 0 0 0 0 0 0 0 
83 0 0 0 0 0 0 0 0 0 
87 0 0 0 0 0 0 0 0 0 
91 0 0 0 0 0 0 0 0 0 
95 0 0 0 0 0 0 0 0 0 
99 0.000346305 -0.000186037 -0.000292091 0 0.000759089 -0.000483474 0.000289829 2.33685 0.000249901 
103 0 0 0 0 0 0 0 0 0 
107 0 0 0 0 0 0 0 0 0 
111 0 0 0 0 0 0 0 0 0 
115 0 0 0 0 0 0 0 0 0 
119 0 0 0 0 0 0 0 0 0 
123 0 0 0 0 0 0 0 0 0 
127 0 0 0 0 0 0 0 0 0 
131 0 0 0 0 0 0 0 0 0 
4 0.923793 0.923773 0.00604372 0 -0.000122736 0.01876 -0.00387433 2787.56 0.0501095 
8 0.578999 0.578684 -0.0190798 0 0.0013619 0.0413059 -0.00150768 1716.31 0.0674383 
12 0.411915 0.410834 -0.029826 0 0.00337272 0.046457 -0.00222813 1206.92 0.0738094 
16 0.294497 0.292652 -0.0329138 0 0.00389459 0.0346286 -0.00299565 865.352 0.071156 
20 0.271942 0.268827 -0.0410393 0 0.00693497 0.0454274 -0.00160499 811.933 0.0831224 
24 0.291909 0.2866 -0.055419 0 0.0104739 0.0541659 -0.00720864 889.682 0.1077 
28 0.324105 0.315533 -0.0740498 0 0.0162272 0.0691457 -0.00196448 988.495 0.140396 
32 0.327234 0.315376 -0.0872955 0 0.0222991 0.0805607 -0.00190279 1009.89 0.163186 
36 0.330636 0.314921 -0.100722 0 0.031732 0.0992142 0.00313885 1064.58 0.188126 
40 0.279024 0.262197 -0.0954303 0 0.0329106 0.0904226 8.14563e-05 871.527 0.177474 
44 0.242014 0.22397 -0.0916958 0 0.0352584 0.0861198 0.00144057 783.936 0.170892 
48 0.211554 0.192464 -0.0878211 0 0.0376449 0.0825008 -0.00272719 692.189 0.164793 
52 0.109566 0.069386 -0.0847958 0 0.0887409 0.0726142 -0.00325273 496.265 0.118423 
56 0.00221349 -0.000195458 -0.00220484 0 0.0033139 -0.000293776 -9.41784e-05 10.0176 0.00238811 
60 0 0 0 0 0 0 0 0 0 
64 0.00139437 -0.000749092 -0.00117607 0 0.00303906 -0.00193572 0.000603026 9.39974 0.0016794 
68 2.29204e-05 -1.23133e-05 -1.9332e-05 0 6.79703e-05 -4.3293e-05 -1.56633e-05 0.0957107 3.89263e-05 
72 7.71269e-05 -4.14331e-05 -6.50527e-05 0 9.85029e-05 -6.27381e-05 -0.00012903 0.432055 3.79751e-05 
76 0.000160405 -8.61712e-05 -0.000135294 0 0.000198491 -0.000126423 0.000135315 0.681831 7.09235e-05 
80 0 0 0 0 0 0 0 0 0 
84 0 0 0 0 0 0 0 0 0 
88 7.61978e-05 -4.09342e-05 -6.42689e-05 0 0.000394897 -0.000251518 -0.000200487 1.78494 0.000187429 
92 0 0 0 0 0 0 0 0 0 
96 0 0 0 0 0 0 0 0 0 
100 0 0 0 0 0 0 0 0 0 
104 0 0 0 0 0 0 0 0 0 
108 0 0 0 0 0 0 0 0 0 
112 0 0 0 0 0 0 0 0 0 
116 0 0 0 0 0 0 0 0 0 
120 0 0 0 0 0 0 0 0 0 
124 0 0 0 0 0 0 0 0 0 
128 0 0 0 0 0 0 0 0 0 
132 0 0 0 0 0 0 0 0 0 
