ITEM: TIMESTEP
18000
ITEM: NUMBER OF SURFS
134
ITEM: BOX BOUNDS oo ao pp
-10 10
0 10
-0.5 0.5
ITEM: SURFS id f_avg_pressure[1] f_avg_pressure[2] f_avg_pressure[3] f_avg_pressure[4] f_avg_shear[1] f_avg_shear[2] f_avg_shear[3] f_avg_heat_flux[*] f_avg_fdrag[*] 
1 0.937932 0.937318 0.0339286 0 0.000902573 -0.0249346 -0.000478822 2854.22 0.00726904 
5 0.840619 0.840614 -0.00279209 0 9.04821e-05 0.0272414 -0.00276807 2515.94 0.0586449 
9 0.521877 0.521398 -0.0223567 0 0.00199973 0.0466373 -0.00159756 1555.62 0.0689618 
13 0.350129 0.348942 -0.0288057 0 0.0038263 0.0463503 -0.0016117 1026.76 0.068315 
17 0.29244 0.290271 -0.0355507 0 0.00540753 0.0441524 0.00218893 874.484 0.0755009 
21 0.272323 0.268785 -0.0437563 0 0.00691655 0.0424868 0.00161012 814.627 0.0873277 
25 0.294749 0.288821 -0.0588167 0 0.00996154 0.0489165 0.00129202 889.007 0.112866 
29 0.338227 0.3285 -0.0805331 0 0.0174755 0.0712838 0.00233232 1029.08 0.151628 
33 0.322531 0.309977 -0.0891097 0 0.0244243 0.0849624 0.000848628 1004.61 0.166599 
37 0.306646 0.291134 -0.0962957 0 0.0296215 0.0895556 0.00142275 961.663 0.178805 
41 0.257457 0.241049 -0.0904409 0 0.0316342 0.0843136 0.00135927 833.864 0.167955 
45 0.229324 0.211359 -0.0889757 0 0.035133 0.0834574 0.000588403 738.293 0.166025 
49 0.249341 0.225807 -0.105746 0 0.0460646 0.0983653 -0.00149364 833.542 0.198527 
53 0.0663688 0.0313655 -0.0584895 0 0.0878982 0.0471362 -0.00125025 384.563 0.0902921 
57 0.00127575 -0.000354934 -0.00122538 0 0.00177593 -0.000514401 8.27548e-05 6.00615 0.00108439 
61 0.000348861 -0.000187411 -0.000294246 0 0.000599606 -0.0003819 0.000248825 2.23008 0.000312792 
65 3.85725e-05 -2.07215e-05 -3.2534e-05 0 6.91775e-05 -4.40604e-05 5.17964e-05 0.326916 3.51244e-05 
69 8.56105e-05 -4.59899e-05 -7.22087e-05 0 0.00013868 -8.83257e-05 0.000114546 0.533165 6.40403e-05 
73 0 0 0 0 0 0 0 0 0 
77 0.000135815 -7.29597e-05 -0.000114554 0 0.000239652 -0.000152635 0.00031202 0.786301 0.000103842 
81 0 0 0 0 0 0 0 0 0 
85 6.56912e-05 -3.52899e-05 -5.54071e-05 0 0.000236229 -0.000150459 -1.80072e-05 1.1355 0.000111521 
89 0 0 0 0 0 0 0 0 0 
93 8.75023e-05 -4.70081e-05 -7.3803e-05 0 0.000344285 -0.000219289 0.000199505 1.28643 0.00014479 
97 0 0 0 0 0 0 0 0 0 
101 0 0 0 0 0 0 0 0 0 
105 0 0 0 0 0 0 0 0 0 
109 0 0 0 0 0 0 0 0 0 
113 0 0 0 0 0 0 0 0 0 
117 0 0 0 0 0 0 0 0 0 
121 0 0 0 0 0 0 0 0 0 
125 0 0 0 0 0 0 0 0 0 
129 0 0 0 0 0 0 0 0 0 
133 0 0 0 0 0 0 0 0 0 
2 0.958769 0.958437 0.0252079 0 0.000474607 -0.0180451 0.000598873 2918.19 0.0222903 
6 0.74367 0.743605 -0.00981894 0 0.000494337 0.037437 -0.00025364 2208.41 0.0634431 
10 0.491872 0.491189 -0.025921 0 0.00261116 0.04948 -0.000838936 1460.53 0.0727097 
14 0.339069 0.337628 -0.0312268 0 0.00384142 0.041534 0.000438745 1009.92 0.0714013 
18 0.276864 0.274465 -0.0363709 0 0.00509212 0.0384265 0.000553627 807.57 0.0756842 
22 0.274854 0.270832 -0.0468465 0 0.00790519 0.045702 -0.00222526 833.325 0.0925512 
26 0.29175 0.285293 -0.0610377 0 0.0118057 0.0551805 0.00155943 883.13 0.116737 
30 0.334583 0.324159 -0.0828686 0 0.0193204 0.0755761 0.000153571 1037 0.1557 
34 0.318767 0.305476 -0.0910879 0 0.0260939 0.0875094 -0.00070218 1005.94 0.170117 
38 0.280933 0.265837 -0.0908506 0 0.0285291 0.0834788 -0.00185454 874.734 0.168422 
42 0.258099 0.240742 -0.0930482 0 0.0333515 0.08629 0.00163989 833.758 0.172794 
46 0.238879 0.219239 -0.0948545 0 0.0385104 0.0890096 0.00341894 771.266 0.177285 
50 0.215035 0.188924 -0.102702 0 0.0517023 0.0951078 0.000771012 752.285 0.174778 
54 0.036777 0.0108222 -0.0351486 0 0.0784274 0.0241476 1.46169e-05 299.472 0.0680734 
58 0.000182294 -8.34512e-05 -0.000162071 0 0.000310216 -0.000159731 0.000102051 0.668172 0.000171811 
62 0.000218338 -0.000117293 -0.000184157 0 0.000457494 -0.000291385 -0.000140346 1.4664 0.000255271 
66 8.27855e-05 -4.4472e-05 -6.9826e-05 0 0.000154287 -9.82651e-05 2.61239e-05 0.354828 7.86705e-05 
70 0.000186855 -0.00010038 -0.000157602 0 0.000230808 -0.000147006 -0.000277813 0.563566 8.90047e-05 
74 0 0 0 0 0 0 0 0 0 
78 0.000138009 -7.41416e-05 -0.000116402 0 0.000275461 -0.000175453 -9.91485e-05 0.999684 0.000123703 
82 0.000187519 -0.000100739 -0.000158161 0 0.000307217 -0.000195679 -1.19799e-05 0.731198 0.000119857 
86 0 0 0 0 0 0 0 0 0 
90 0 0 0 0 0 0 0 0 0 
94 0 0 0 0 0 0 0 0 0 
98 0 0 0 0 0 0 0 0 0 
102 0 0 0 0 0 0 0 0 0 
106 5.41017e-05 -2.90637e-05 -4.56322e-05 0 9.12539e-05 -5.81209e-05 2.82802e-06 0.0544298 2.34229e-05 
110 0.000305033 -0.000163865 -0.000257281 0 0.00072242 -0.000460117 -0.000501902 2.53099 0.000191393 
114 0 0 0 0 0 0 0 0 0 
118 0 0 0 0 0 0 0 0 0 
122 0 0 0 0 0 0 0 0 0 
126 0 0 0 0 0 0 0 0 0 
130 0 0 0 0 0 0 0 0 0 
134 0 0 0 0 0 0 0 0 0 
3 0.951404 0.951276 0.0156241 0 -0.000108808 0.00662479 -0.000532896 2886.46 0.036855 
7 0.680217 0.680036 -0.0157057 0 0.00104478 0.0452375 5.43094e-05 2018.6 0.0686287 
11 0.426538 0.425702 -0.0266861 0 0.00286484 0.0457006 0.00216808 1262.24 0.0697387 
15 0.315086 0.313444 -0.0321195 0 0.00443061 0.0432369 7.99995e-05 931.059 0.0713733 
19 0.270976 0.268263 -0.03825 0 0.00614604 0.0431047 0.00359087 799.818 0.0785058 
23 0.263272 0.258965 -0.0474271 0 0.0083993 0.0458625 -0.0030114 779 0.0928561 
27 0.320006 0.312246 -0.0700421 0 0.0145996 0.0650849 -1.7433e-05 986.18 0.133376 
31 0.331159 0.320014 -0.0851883 0 0.0217975 0.0818835 0.00232641 1024.97 0.160073 
35 0.323241 0.308835 -0.0954236 0 0.0271863 0.0879872 0.00131072 1023.21 0.177389 
39 0.287554 0.27117 -0.0956777 0 0.0322169 0.0913094 -0.000939686 926.748 0.178023 
43 0.270578 0.251407 -0.100036 0 0.0379151 0.0952866 -0.00161359 874.14 0.18657 
47 0.223295 0.204051 -0.0906869 0 0.0387837 0.0872656 0.00276672 731.277 0.170471 
51 0.168754 0.129994 -0.107608 0 0.0791609 0.0956292 -0.000707316 658.194 0.154464 
55 0.00871384 0.000914589 -0.00866571 0 0.0283869 0.00299599 0.000574112 101.229 0.0224363 
59 0.000119144 -6.40053e-05 -0.000100492 0 0.000140769 -8.96581e-05 -9.71702e-05 0.560605 5.95556e-05 
63 0.000162712 -8.74087e-05 -0.00013724 0 0.000222755 -0.000141874 -8.90755e-05 0.561573 0.000100409 
67 0.000226432 -0.000121641 -0.000190984 0 0.000367411 -0.000234011 -0.000147046 1.11018 0.000173977 
71 0.000143989 -7.73533e-05 -0.000121447 0 0.00033598 -0.000213997 -9.24064e-05 0.716097 0.000174296 
75 0.000157279 -8.44922e-05 -0.000132657 0 0.000100954 -6.43001e-05 4.93053e-05 0.0490732 1.05348e-05 
79 0 0 0 0 0 0 0 0 0 
83 1.0415e-05 -5.59492e-06 -8.7846e-06 0 6.83361e-05 -4.35234e-05 -1.22004e-05 0.376023 3.58877e-05 
87 0 0 0 0 0 0 0 0 0 
91 0 0 0 0 0 0 0 0 0 
95 0 0 0 0 0 0 0 0 0 
99 0.000207783 -0.000111622 -0.000175255 0 0.000455453 -0.000290084 0.000173897 1.40211 0.000149941 
103 0 0 0 0 0 0 0 0 0 
107 0 0 0 0 0 0 0 0 0 
111 0 0 0 0 0 0 0 0 0 
115 0 0 0 0 0 0 0 0 0 
119 0 0 0 0 0 0 0 0 0 
123 0 0 0 0 0 0 0 0 0 
127 0 0 0 0 0 0 0 0 0 
131 0 0 0 0 0 0 0 0 0 
4 0.883847 0.883829 0.00578239 0 -0.000110218 0.0168466 -0.00446582 2654.15 0.0479431 
8 0.6149 0.614566 -0.0202628 0 0.00146975 0.0445772 0.000817146 1829.88 0.0716226 
12 0.415528 0.414437 -0.0300876 0 0.00337228 0.046451 8.50831e-05 1216.88 0.0744514 
16 0.286792 0.284995 -0.0320526 0 0.00397158 0.0353132 -0.00136519 838.748 0.0693371 
20 0.267772 0.264705 -0.04041 0 0.00677758 0.0443964 -0.000470633 799.249 0.0818325 
24 0.287025 0.281805 -0.0544918 0 0.0101447 0.0524635 -0.00420224 869.483 0.105843 
28 0.326393 0.31776 -0.0745726 0 0.0164054 0.0699049 6.00062e-06 1003.36 0.141414 
32 0.32677 0.314928 -0.0871717 0 0.0221983 0.0801966 -0.000178173 1005.4 0.162921 
36 0.318059 0.302941 -0.0968907 0 0.0303083 0.0947628 0.00229607 1011.92 0.180853 
40 0.279373 0.262526 -0.0955498 0 0.0336032 0.0923257 0.000936672 879.626 0.178088 
44 0.248399 0.229879 -0.0941151 0 0.0358498 0.0875642 0.000355675 804.548 0.175178 
48 0.213528 0.194261 -0.0886406 0 0.0381807 0.0836749 -0.00167763 692.133 0.166463 
52 0.106397 0.0673789 -0.0823429 0 0.085599 0.0700432 -0.00259085 481.938 0.114567 
56 0.00207391 -0.000183133 -0.00206581 0 0.00340273 -0.00030165 -8.18573e-05 10.5426 0.00246557 
60 0.000102259 -5.49347e-05 -8.625e-05 0 0.00019348 -0.000123232 -3.98047e-05 0.334517 0.000106314 
64 0.000836623 -0.000449455 -0.00070564 0 0.00182343 -0.00116143 0.000361815 5.63984 0.00100764 
68 1.37522e-05 -7.38798e-06 -1.15992e-05 0 4.07822e-05 -2.59758e-05 -9.39796e-06 0.0574264 2.33558e-05 
72 7.23081e-05 -3.88444e-05 -6.09883e-05 0 0.000102825 -6.54909e-05 -4.25285e-05 0.399417 4.25737e-05 
76 0.00058653 -0.000315089 -0.000494708 0 0.000767581 -0.000488888 0.000465422 2.33108 0.000285722 
80 0 0 0 0 0 0 0 0 0 
84 5.53711e-05 -2.97459e-05 -4.67027e-05 0 0.000403595 -0.000257058 -0.00011827 1.38296 0.000210661 
88 4.57187e-05 -2.45605e-05 -3.85614e-05 0 0.000236938 -0.000150911 -0.000120292 1.07096 0.000112458 
92 0 0 0 0 0 0 0 0 0 
96 0 0 0 0 0 0 0 0 0 
100 0 0 0 0 0 0 0 0 0 
104 0 0 0 0 0 0 0 0 0 
108 0.000171789 -9.22861e-05 -0.000144896 0 0.000394855 -0.000251488 0.000213411 1.29858 0.000108817 
112 0.000220885 -0.000118661 -0.000186306 0 0.000301799 -0.00019222 8.59549e-05 0.749075 5.9643e-05 
116 0.000128995 -6.92971e-05 -0.0001088 0 0.000395779 -0.000252079 0.000407807 0.920121 9.52337e-05 
120 0 0 0 0 0 0 0 0 0 
124 0 0 0 0 0 0 0 0 0 
128 0 0 0 0 0 0 0 0 0 
132 0 0 0 0 0 0 0 0 0 
