ITEM: TIMESTEP
22000
ITEM: NUMBER OF SURFS
134
ITEM: BOX BOUNDS oo ao pp
-10 10
0 10
-0.5 0.5
ITEM: SURFS id f_avg_pressure[1] f_avg_pressure[2] f_avg_pressure[3] f_avg_pressure[4] f_avg_shear[1] f_avg_shear[2] f_avg_shear[3] f_avg_heat_flux[*] f_avg_fdrag[*] 
1 0.944406 0.943788 0.0341628 0 0.000754527 -0.0208447 5.38034e-05 2865.39 0.00731801 
5 0.84649 0.846486 -0.00281159 0 8.80076e-05 0.0264964 -0.000576077 2542.16 0.0590543 
9 0.528552 0.528067 -0.0226426 0 0.00199825 0.0466027 -0.00189089 1572.44 0.0698402 
13 0.35737 0.356159 -0.0294015 0 0.00367627 0.0445329 -0.000897162 1054.71 0.0696836 
17 0.28809 0.285954 -0.035022 0 0.00517233 0.042232 -0.000153954 854.852 0.0743385 
21 0.276997 0.273397 -0.0445072 0 0.00682766 0.0419408 0.00260534 827.288 0.0887605 
25 0.289876 0.284046 -0.0578442 0 0.0103123 0.0506387 0.00243004 872.134 0.111194 
29 0.337451 0.327746 -0.0803482 0 0.0177639 0.07246 0.00241432 1032.48 0.151423 
33 0.325461 0.312793 -0.0899192 0 0.0243383 0.0846631 0.000549883 1018.23 0.167959 
37 0.301204 0.285967 -0.0945867 0 0.0290793 0.0879164 0.000384351 945.576 0.175622 
41 0.267578 0.250525 -0.093996 0 0.0330769 0.0881588 0.0020639 864.653 0.17468 
45 0.234046 0.215711 -0.0908077 0 0.0360361 0.0856028 -0.000643207 752.595 0.169564 
49 0.246847 0.223548 -0.104688 0 0.045646 0.0974715 -0.00300237 821.647 0.196572 
53 0.0677292 0.0320085 -0.0596884 0 0.0889564 0.0477037 -0.000997178 389.442 0.09158 
57 0.00122249 -0.000340117 -0.00117423 0 0.00170067 -0.000492601 -7.75162e-05 5.26306 0.00103826 
61 0.0002509 -0.000134785 -0.000211621 0 0.000365996 -0.000233109 0.000159424 1.34694 0.000175453 
65 4.69543e-05 -2.52243e-05 -3.96036e-05 0 6.53892e-05 -4.16476e-05 3.45375e-05 0.270227 2.91144e-05 
69 0.000139255 -7.48076e-05 -0.000117455 0 0.000747161 -0.000475869 0.000167247 2.62287 0.000464534 
73 1.94504e-05 -1.04489e-05 -1.64055e-05 0 4.47616e-06 -2.85095e-06 1.03893e-05 0.00267597 -3.92364e-06 
77 7.54528e-05 -4.05332e-05 -6.36411e-05 0 0.00013314 -8.47974e-05 0.000173344 0.436834 5.76902e-05 
81 0 0 0 0 0 0 0 0 0 
85 3.64951e-05 -1.96055e-05 -3.07817e-05 0 0.000131239 -8.35885e-05 -1.0004e-05 0.630834 6.19562e-05 
89 1.45877e-05 -7.83667e-06 -1.23039e-05 0 8.50116e-05 -5.41459e-05 -6.04845e-05 0.135132 4.0211e-05 
93 4.86124e-05 -2.61156e-05 -4.10017e-05 0 0.000191269 -0.000121827 0.000110836 0.714683 8.04388e-05 
97 0 0 0 0 0 0 0 0 0 
101 9.70641e-05 -5.21434e-05 -8.18688e-05 0 8.81808e-05 -5.61635e-05 -1.02946e-05 0.17802 1.51033e-05 
105 0 0 0 0 0 0 0 0 0 
109 0 0 0 0 0 0 0 0 0 
113 4.91592e-05 -2.64087e-05 -4.14633e-05 0 0.000254112 -0.000161848 2.63069e-05 1.37646 7.22225e-05 
117 0 0 0 0 0 0 0 0 0 
121 0 0 0 0 0 0 0 0 0 
125 0 0 0 0 0 0 0 0 0 
129 0 0 0 0 0 0 0 0 0 
133 0 0 0 0 0 0 0 0 0 
2 0.955327 0.954997 0.0251175 0 0.000234779 -0.0089266 0.000917059 2884.67 0.0222048 
6 0.732287 0.732223 -0.00966865 0 0.000494337 0.037437 -0.000875601 2179.75 0.0624727 
10 0.495721 0.495032 -0.0261239 0 0.00260946 0.0494477 -0.000744998 1472.65 0.0732754 
14 0.348059 0.346579 -0.0320546 0 0.00393978 0.0425975 0.000260948 1036.69 0.0732935 
18 0.27539 0.273004 -0.0361773 0 0.00528613 0.0398905 -0.00112209 808.201 0.0753411 
22 0.272186 0.268203 -0.0463918 0 0.00781279 0.0451679 -0.00326464 820.332 0.0916476 
26 0.291687 0.285232 -0.0610247 0 0.0118174 0.0552351 0.00098824 887.458 0.116717 
30 0.33518 0.324737 -0.0830164 0 0.0194117 0.0759332 -0.00072003 1036.45 0.156004 
34 0.326174 0.312573 -0.0932043 0 0.0263809 0.0884719 -0.000538791 1027.85 0.173906 
38 0.277806 0.262879 -0.0898394 0 0.0280691 0.0821328 -0.00132111 863.784 0.166466 
42 0.260168 0.242673 -0.0937942 0 0.0340015 0.0879717 0.00283831 836.746 0.17442 
46 0.242402 0.222473 -0.0962537 0 0.0391406 0.0904663 0.00252035 791.149 0.179943 
50 0.215385 0.189232 -0.10287 0 0.0517241 0.095148 0.000365211 743.656 0.175017 
54 0.0350634 0.0103179 -0.0335109 0 0.0741803 0.0228399 -4.48072e-05 281.17 0.0644495 
58 0.000375806 -0.000172038 -0.000334116 0 0.000568263 -0.000292601 -0.000168125 1.68631 0.000300204 
62 0.000231043 -0.000124118 -0.000194873 0 0.000446123 -0.000284143 -0.000102258 1.41371 0.000241617 
66 0.000100055 -5.3749e-05 -8.4392e-05 0 0.000241161 -0.000153595 5.65909e-05 0.673584 0.00013426 
70 0.000126499 -6.79565e-05 -0.000106696 0 0.000143325 -9.12865e-05 -0.00014106 0.326007 5.14319e-05 
74 0 0 0 0 0 0 0 0 0 
78 0.000139006 -7.46771e-05 -0.000117243 0 0.000250864 -0.000159786 5.84775e-05 0.904095 0.00010826 
82 0.000161819 -8.69331e-05 -0.000136485 0 0.000213649 -0.000136082 1.37937e-05 0.478329 7.35567e-05 
86 4.72572e-05 -2.53872e-05 -3.9859e-05 0 7.83348e-07 -4.98933e-07 1.49288e-05 -0.00612589 -1.34464e-05 
90 0 0 0 0 0 0 0 0 0 
94 0 0 0 0 0 0 0 0 0 
98 0 0 0 0 0 0 0 0 0 
102 7.08322e-05 -3.80514e-05 -5.97436e-05 0 0.000126681 -8.0685e-05 0.000131727 0.37377 3.63922e-05 
106 3.00565e-05 -1.61465e-05 -2.53512e-05 0 5.06966e-05 -3.22894e-05 1.57112e-06 0.0302388 1.30127e-05 
110 0.000169463 -9.10361e-05 -0.000142934 0 0.000401345 -0.000255621 -0.000278834 1.4061 0.00010633 
114 0 0 0 0 0 0 0 0 0 
118 0 0 0 0 0 0 0 0 0 
122 0 0 0 0 0 0 0 0 0 
126 0 0 0 0 0 0 0 0 0 
130 0 0 0 0 0 0 0 0 0 
134 0 0 0 0 0 0 0 0 0 
3 0.921343 0.921219 0.0151305 0 -0.000107536 0.00654732 -0.000476348 2783.14 0.0356905 
7 0.673042 0.672862 -0.01554 0 0.00100819 0.0436531 -3.63041e-05 2007.44 0.0679022 
11 0.433952 0.433102 -0.0271499 0 0.00281407 0.0448907 0.00147774 1287.27 0.0709345 
15 0.313974 0.312339 -0.0320062 0 0.00448278 0.0437461 -0.00119337 930.619 0.0711367 
19 0.263175 0.26054 -0.0371489 0 0.00591375 0.0414755 0.00247634 776.768 0.0762299 
23 0.265902 0.261552 -0.0479009 0 0.00849606 0.0463908 -0.00240073 788.995 0.093788 
27 0.320506 0.312735 -0.0701517 0 0.0141582 0.0631169 -1.78998e-05 979.652 0.133396 
31 0.328068 0.317028 -0.0843933 0 0.0213478 0.0801941 0.00189427 1011.01 0.158463 
35 0.31229 0.298372 -0.092191 0 0.0262891 0.0850837 0.0016312 984.87 0.171393 
39 0.283161 0.267027 -0.0942159 0 0.0313824 0.0889441 -0.000207502 906.266 0.175103 
43 0.265271 0.246475 -0.0980739 0 0.0372394 0.0935884 -0.000464938 853.772 0.182954 
47 0.232783 0.21272 -0.0945399 0 0.0403303 0.0907455 0.00154057 767.988 0.177643 
51 0.166582 0.128321 -0.106223 0 0.0786608 0.0950251 -2.62716e-05 651.117 0.152859 
55 0.00899775 0.000944388 -0.00894805 0 0.0310242 0.00327433 0.000400965 109.792 0.0244785 
59 0.000180609 -9.70244e-05 -0.000152334 0 0.000217385 -0.000138457 -0.000105024 0.698402 9.33799e-05 
63 0.000145369 -7.80921e-05 -0.000122612 0 0.000122849 -7.82428e-05 -1.37159e-05 0.335587 3.32035e-05 
67 0.000135578 -7.28334e-05 -0.000114353 0 0.000249621 -0.000158988 -7.251e-05 0.765919 0.000125145 
71 7.99938e-05 -4.2974e-05 -6.74703e-05 0 0.000186655 -0.000118887 -5.13369e-05 0.397832 9.68309e-05 
75 0.000104368 -5.60675e-05 -8.80286e-05 0 0.000112488 -7.16461e-05 -1.06402e-05 0.226501 3.61062e-05 
79 5.90544e-05 -3.17245e-05 -4.98095e-05 0 9.27294e-05 -5.9061e-05 -1.58345e-05 0.374842 3.69665e-05 
83 5.78611e-06 -3.10829e-06 -4.88033e-06 0 3.79645e-05 -2.41797e-05 -6.778e-06 0.208901 1.99376e-05 
87 6.54554e-05 -3.51632e-05 -5.52084e-05 0 0.000187296 -0.000119292 1.88729e-05 0.708123 8.18492e-05 
91 4.66342e-05 -2.50524e-05 -3.93336e-05 0 6.03548e-05 -3.84412e-05 -4.06326e-05 0.127369 1.77937e-05 
95 0.00022514 -0.000120947 -0.000189895 0 0.000332475 -0.000211758 -0.00024413 0.507199 9.94316e-05 
99 0.000115435 -6.20123e-05 -9.73637e-05 0 0.00025303 -0.000161158 9.66097e-05 0.778951 8.33005e-05 
103 0.000150626 -8.09173e-05 -0.000127046 0 0.000301148 -0.000191805 0.000147341 0.725916 8.85577e-05 
107 0 0 0 0 0 0 0 0 0 
111 0 0 0 0 0 0 0 0 0 
115 0.000116527 -6.25992e-05 -9.82846e-05 0 0.00022872 -0.000145676 0.000102318 0.502267 4.98678e-05 
119 0 0 0 0 0 0 0 0 0 
123 0 0 0 0 0 0 0 0 0 
127 0 0 0 0 0 0 0 0 0 
131 0 0 0 0 0 0 0 0 0 
4 0.88307 0.883051 0.0057773 0 -0.000110809 0.0169369 -0.00302289 2652.96 0.0479009 
8 0.604821 0.604492 -0.0199307 0 0.00140353 0.0425686 0.00191881 1803.83 0.0704437 
12 0.407301 0.406232 -0.0294919 0 0.00331828 0.0457071 0.00041787 1190.44 0.0729797 
16 0.293989 0.292147 -0.0328569 0 0.00438266 0.0389683 4.31602e-05 864.375 0.0711518 
20 0.268636 0.26556 -0.0405405 0 0.00647927 0.0424423 -0.00106157 800.657 0.0820002 
24 0.286773 0.281557 -0.054444 0 0.0100949 0.0522057 -0.00274769 866.517 0.105735 
28 0.326669 0.318029 -0.0746356 0 0.0165148 0.070371 0.000435934 1003.58 0.141574 
32 0.325448 0.313654 -0.086819 0 0.0224349 0.0810515 -0.0014094 1006.11 0.16242 
36 0.326148 0.310646 -0.099355 0 0.0305923 0.0956508 0.000895132 1042.17 0.185188 
40 0.283187 0.26611 -0.0968543 0 0.0339822 0.093367 -8.68418e-05 903.528 0.180471 
44 0.248751 0.230205 -0.0942484 0 0.0352876 0.086191 -0.000290307 799.161 0.175022 
48 0.226277 0.205859 -0.0939328 0 0.0398619 0.0873595 -0.000827133 741.229 0.175973 
52 0.106192 0.0672491 -0.0821843 0 0.085364 0.069851 -0.00162202 478.752 0.114293 
56 0.00231555 -0.000204471 -0.0023065 0 0.00380664 -0.000337458 -7.72459e-05 11.8912 0.00275855 
60 7.06572e-05 -3.79579e-05 -5.95956e-05 0 0.000160401 -0.000102164 -2.80025e-05 0.298394 9.39582e-05 
64 0.000484846 -0.000260471 -0.000408938 0 0.0010932 -0.000696307 0.000171088 3.43531 0.000610699 
68 5.17599e-05 -2.78065e-05 -4.36565e-05 0 8.97943e-05 -5.71935e-05 7.73873e-06 0.21044 4.3354e-05 
72 4.01712e-05 -2.15802e-05 -3.38824e-05 0 5.71251e-05 -3.63838e-05 -2.3627e-05 0.221898 2.3652e-05 
76 0.00032585 -0.00017505 -0.000274838 0 0.000426434 -0.000271604 0.000258568 1.29504 0.000158734 
80 0 0 0 0 0 0 0 0 0 
84 3.07617e-05 -1.65255e-05 -2.5946e-05 0 0.00022422 -0.00014281 -6.57054e-05 0.768312 0.000117034 
88 2.53993e-05 -1.36447e-05 -2.1423e-05 0 0.000131632 -8.38393e-05 -6.68291e-05 0.594979 6.24765e-05 
92 0 0 0 0 0 0 0 0 0 
96 0 0 0 0 0 0 0 0 0 
100 0 0 0 0 0 0 0 0 0 
104 0 0 0 0 0 0 0 0 0 
108 9.54384e-05 -5.127e-05 -8.04976e-05 0 0.000219364 -0.000139716 0.000118562 0.721432 6.04541e-05 
112 0.000177352 -9.52746e-05 -0.000149588 0 0.000351476 -0.00022386 6.98962e-05 0.807706 8.34373e-05 
116 0.000137884 -7.40727e-05 -0.000116298 0 0.000271312 -0.000172804 0.000222787 0.570895 5.75341e-05 
120 0 0 0 0 0 0 0 0 0 
124 0 0 0 0 0 0 0 0 0 
128 0 0 0 0 0 0 0 0 0 
132 0 0 0 0 0 0 0 0 0 
