ITEM: TIMESTEP
15000
ITEM: NUMBER OF SURFS
134
ITEM: BOX BOUNDS oo ao pp
-10 10
0 10
-0.5 0.5
ITEM: SURFS id f_avg_pressure[1] f_avg_pressure[2] f_avg_pressure[3] f_avg_pressure[4] f_avg_shear[1] f_avg_shear[2] f_avg_shear[3] f_avg_heat_flux[*] f_avg_fdrag[*] 
1 0.962558 0.961928 0.0348194 0 0.00110051 -0.030403 -0.00175845 2931.89 0.00746124 
5 0.80388 0.803876 -0.00267007 0 9.68251e-05 0.0291511 -0.00112306 2377.45 0.0560826 
9 0.540099 0.539603 -0.0231373 0 0.00195838 0.045673 0.000459681 1627.58 0.0713549 
13 0.353445 0.352247 -0.0290786 0 0.0037048 0.0448786 0.00218449 1040.71 0.0689316 
17 0.281126 0.279041 -0.0341753 0 0.00525383 0.0428974 0.00660441 840.59 0.0725941 
21 0.25923 0.255862 -0.0416525 0 0.00687365 0.0422233 -0.000123168 777.117 0.0832208 
25 0.280198 0.274563 -0.0559131 0 0.0088513 0.0434646 -0.0032315 842.778 0.10706 
29 0.341337 0.33152 -0.0812735 0 0.0176179 0.0718647 0.000150108 1044.54 0.153014 
33 0.318875 0.306463 -0.0880996 0 0.0227237 0.0790466 0.0014114 990.284 0.164002 
37 0.319869 0.303688 -0.100448 0 0.0314185 0.0949886 0.000559274 1016.99 0.186805 
41 0.257026 0.240646 -0.0902895 0 0.0314916 0.0839336 -0.000401298 837.087 0.167619 
45 0.230908 0.21282 -0.0895904 0 0.0353403 0.0839501 0.00416714 757.171 0.167148 
49 0.2482 0.224774 -0.105262 0 0.0449833 0.0960563 -0.000713405 824.779 0.196983 
53 0.0648182 0.0306327 -0.0571229 0 0.0853539 0.0457718 -0.00250649 368.712 0.0878111 
57 0.000976017 -0.000271543 -0.000937482 0 0.00164864 -0.000477532 -0.000265855 4.43062 0.00105089 
61 0.000434623 -0.000233483 -0.000366582 0 0.000808276 -0.000514806 0.000316874 3.28902 0.000436179 
65 9.64313e-05 -5.18037e-05 -8.13349e-05 0 0.000172944 -0.000110151 0.000129491 0.817289 8.7811e-05 
69 0 0 0 0 0 0 0 0 0 
73 0 0 0 0 0 0 0 0 0 
77 0 0 0 0 0 0 0 0 0 
81 0 0 0 0 0 0 0 0 0 
85 0 0 0 0 0 0 0 0 0 
89 0 0 0 0 0 0 0 0 0 
93 0 0 0 0 0 0 0 0 0 
97 0 0 0 0 0 0 0 0 0 
101 0 0 0 0 0 0 0 0 0 
105 0 0 0 0 0 0 0 0 0 
109 0 0 0 0 0 0 0 0 0 
113 0 0 0 0 0 0 0 0 0 
117 0 0 0 0 0 0 0 0 0 
121 0 0 0 0 0 0 0 0 0 
125 0 0 0 0 0 0 0 0 0 
129 0 0 0 0 0 0 0 0 0 
133 0 0 0 0 0 0 0 0 0 
2 1.01903 1.01868 0.0267924 0 0.000425435 -0.0161756 0.0100224 3086.24 0.0236896 
6 0.773234 0.773166 -0.0102093 0 0.000530893 0.0402054 0.000440241 2308.3 0.0659666 
10 0.496664 0.495974 -0.0261736 0 0.00273367 0.0518015 0.00174895 1469.42 0.0734324 
14 0.320361 0.318999 -0.0295038 0 0.00354167 0.038293 0.00337814 955.184 0.0674433 
18 0.265819 0.263515 -0.0349199 0 0.00485928 0.0366694 0.00381412 773.261 0.0726567 
22 0.273063 0.269067 -0.0465412 0 0.00732998 0.0423766 -0.00519807 825.45 0.0917742 
26 0.292673 0.286196 -0.0612309 0 0.013078 0.0611272 8.55843e-05 900.647 0.117591 
30 0.344191 0.333467 -0.0852483 0 0.0202119 0.0790632 5.44188e-05 1070.31 0.160324 
34 0.3129 0.299853 -0.0894113 0 0.0254667 0.0854062 0.0021822 990.141 0.166911 
38 0.279254 0.264249 -0.0903078 0 0.0273799 0.0801162 0.000256506 877.471 0.166855 
42 0.260639 0.243112 -0.0939639 0 0.0334554 0.0865587 0.00546194 838.819 0.174353 
46 0.246993 0.226686 -0.0980765 0 0.0394315 0.0911387 0.00457703 798.583 0.183041 
50 0.21878 0.192215 -0.104491 0 0.0531861 0.0978373 -9.59486e-05 764.723 0.178246 
54 0.0381999 0.0112409 -0.0365086 0 0.0811293 0.0249795 -0.000725108 311.482 0.0704536 
58 0.000229064 -0.000104862 -0.000203653 0 0.000366085 -0.000188499 0.000182652 0.787198 0.000197919 
62 0.000350127 -0.00018809 -0.000295315 0 0.000775351 -0.000493833 -0.000239435 2.57321 0.000440651 
66 3.82006e-05 -2.05212e-05 -3.22206e-05 0 0.000181359 -0.000115507 -1.62897e-05 0.660004 0.000115223 
70 0.000324512 -0.000174331 -0.00027371 0 0.000336098 -0.000214067 -0.000342633 0.601822 0.000110391 
74 0 0 0 0 0 0 0 0 0 
78 0 0 0 0 0 0 0 0 0 
82 0.000468797 -0.000251848 -0.000395403 0 0.000768042 -0.000489198 -2.99498e-05 1.82799 0.000299643 
86 0 0 0 0 0 0 0 0 0 
90 0 0 0 0 0 0 0 0 0 
94 0 0 0 0 0 0 0 0 0 
98 0 0 0 0 0 0 0 0 0 
102 0 0 0 0 0 0 0 0 0 
106 0.000135254 -7.26593e-05 -0.00011408 0 0.000228135 -0.000145302 7.07004e-06 0.136075 5.85572e-05 
110 0.000762582 -0.000409662 -0.000643202 0 0.00180605 -0.00115029 -0.00125475 6.32747 0.000478483 
114 0 0 0 0 0 0 0 0 0 
118 0 0 0 0 0 0 0 0 0 
122 0 0 0 0 0 0 0 0 0 
126 0 0 0 0 0 0 0 0 0 
130 0 0 0 0 0 0 0 0 0 
134 0 0 0 0 0 0 0 0 0 
3 0.966627 0.966496 0.0158741 0 -2.03274e-05 0.00123764 0.0013005 2946.42 0.0374482 
7 0.696211 0.696026 -0.016075 0 0.00105071 0.0454943 -0.00334955 2083.84 0.0702405 
11 0.452105 0.451219 -0.0282857 0 0.00309071 0.0493037 0.00789648 1344.37 0.0739277 
15 0.331748 0.33002 -0.0338181 0 0.00457718 0.0446673 -0.00117268 998.272 0.075128 
19 0.267263 0.264587 -0.0377259 0 0.00624557 0.0438028 0.000834871 794.453 0.0774827 
23 0.259183 0.254943 -0.0466905 0 0.00861168 0.0470222 -0.00572784 758.612 0.0915329 
27 0.320313 0.312546 -0.0701093 0 0.0151737 0.0676441 0.00294889 993.952 0.133733 
31 0.326502 0.315514 -0.0839903 0 0.0216865 0.0814665 0.00317238 1022.89 0.157913 
35 0.340642 0.325461 -0.100561 0 0.0292286 0.0945972 -0.00107735 1073.55 0.187245 
39 0.300334 0.283221 -0.0999297 0 0.0348317 0.0987203 0.00298597 978.207 0.186629 
43 0.260839 0.242357 -0.0964353 0 0.0359548 0.09036 0.00141142 835.393 0.179471 
47 0.227273 0.207685 -0.0923022 0 0.0384864 0.0865966 0.00304085 736.071 0.172814 
51 0.172243 0.132681 -0.109832 0 0.0805542 0.0973124 0.00214342 667.076 0.157478 
55 0.00765333 0.00080328 -0.00761106 0 0.0249995 0.00263848 0.000328018 86.0251 0.0197573 
59 0.000154091 -8.27789e-05 -0.000129968 0 0.000166729 -0.000106192 -0.000220224 0.513152 6.5131e-05 
63 0.000248286 -0.000133379 -0.000209418 0 0.000315327 -0.000200833 -0.00021494 0.845652 0.000134982 
67 0.000566081 -0.000304103 -0.00047746 0 0.000918529 -0.000585027 -0.000367616 2.77544 0.000434942 
71 0.000125247 -6.72848e-05 -0.000105639 0 0.000277485 -0.000176739 -1.46922e-05 0.20908 0.00014166 
75 0 0 0 0 0 0 0 0 0 
79 0 0 0 0 0 0 0 0 0 
83 0 0 0 0 0 0 0 0 0 
87 0 0 0 0 0 0 0 0 0 
91 0 0 0 0 0 0 0 0 0 
95 0 0 0 0 0 0 0 0 0 
99 0.000519457 -0.000279055 -0.000438137 0 0.00113863 -0.000725211 0.000434744 3.50528 0.000374852 
103 0 0 0 0 0 0 0 0 0 
107 0 0 0 0 0 0 0 0 0 
111 0 0 0 0 0 0 0 0 0 
115 0 0 0 0 0 0 0 0 0 
119 0 0 0 0 0 0 0 0 0 
123 0 0 0 0 0 0 0 0 0 
127 0 0 0 0 0 0 0 0 0 
131 0 0 0 0 0 0 0 0 0 
4 0.9152 0.915181 0.00598751 0 -0.000133234 0.0203646 -0.00457714 2747.57 0.0496427 
8 0.575654 0.575342 -0.0189696 0 0.00138516 0.0420114 -0.00270116 1704.5 0.0670524 
12 0.415751 0.414659 -0.0301038 0 0.00357225 0.0492053 -0.00167457 1216.51 0.0745267 
16 0.301806 0.299915 -0.0337306 0 0.00390475 0.034719 -0.0063945 882.276 0.0729011 
20 0.274307 0.271166 -0.0413963 0 0.00741075 0.048544 -0.000356942 818.357 0.0839708 
24 0.294354 0.289 -0.0558832 0 0.0108705 0.056217 -0.00560665 891.853 0.108714 
28 0.310086 0.301884 -0.0708467 0 0.015698 0.0668906 0.00107343 954.507 0.134396 
32 0.326683 0.314844 -0.0871483 0 0.0218848 0.0790641 -0.00541354 1008.7 0.162729 
36 0.350659 0.333992 -0.106822 0 0.0327583 0.102423 0.00350737 1131.34 0.199033 
40 0.282296 0.265272 -0.0965495 0 0.0319919 0.0878985 -0.00280285 896.365 0.178771 
44 0.24792 0.229436 -0.0939336 0 0.0369105 0.090155 0.0013008 806.886 0.175585 
48 0.210974 0.191937 -0.0875804 0 0.0371428 0.0814005 -0.00371888 687.68 0.164056 
52 0.111802 0.0708016 -0.0865258 0 0.0902875 0.0738797 -0.003579 506.462 0.120641 
56 0.00256163 -0.000226201 -0.00255163 0 0.00399994 -0.000354593 -0.000253514 11.7967 0.00288993 
60 0 0 0 0 0 0 0 0 0 
64 0.00112158 -0.000602541 -0.000945985 0 0.00168908 -0.00107585 -7.12083e-06 2.82897 0.000796839 
68 3.43805e-05 -1.847e-05 -2.8998e-05 0 0.000101955 -6.49394e-05 -2.34949e-05 0.143566 5.83895e-05 
72 0.00011569 -6.21497e-05 -9.75791e-05 0 0.000147754 -9.41071e-05 -0.000193545 0.648082 5.69626e-05 
76 0 0 0 0 0 0 0 0 0 
80 0 0 0 0 0 0 0 0 0 
84 0 0 0 0 0 0 0 0 0 
88 0 0 0 0 0 0 0 0 0 
92 0 0 0 0 0 0 0 0 0 
96 0 0 0 0 0 0 0 0 0 
100 0 0 0 0 0 0 0 0 0 
104 0 0 0 0 0 0 0 0 0 
108 0 0 0 0 0 0 0 0 0 
112 0 0 0 0 0 0 0 0 0 
116 0 0 0 0 0 0 0 0 0 
120 0 0 0 0 0 0 0 0 0 
124 0 0 0 0 0 0 0 0 0 
128 0 0 0 0 0 0 0 0 0 
132 0 0 0 0 0 0 0 0 0 
