ITEM: TIMESTEP
23000
ITEM: NUMBER OF SURFS
134
ITEM: BOX BOUNDS oo ao pp
-10 10
0 10
-0.5 0.5
ITEM: SURFS id f_avg_pressure[1] f_avg_pressure[2] f_avg_pressure[3] f_avg_pressure[4] f_avg_shear[1] f_avg_shear[2] f_avg_shear[3] f_avg_heat_flux[*] f_avg_fdrag[*] 
1 0.957867 0.957241 0.0346498 0 0.000766719 -0.0211815 -4.22968e-05 2912.83 0.00742234 
5 0.843284 0.843279 -0.00280094 0 8.78855e-05 0.0264596 -0.000460924 2529.44 0.0588306 
9 0.529866 0.52938 -0.0226989 0 0.00200243 0.0467002 -0.00175272 1575.42 0.0700137 
13 0.356655 0.355446 -0.0293427 0 0.0037103 0.0449452 -0.00123866 1052.75 0.0695521 
17 0.287838 0.285703 -0.0349913 0 0.00517178 0.0422274 -0.000447879 855.35 0.0742744 
21 0.276606 0.273012 -0.0444445 0 0.00686667 0.0421804 0.0029403 826.677 0.0886509 
25 0.293152 0.287256 -0.0584979 0 0.0105158 0.0516382 0.00164387 885.973 0.112484 
29 0.338112 0.328388 -0.0805056 0 0.0178577 0.0728429 0.00206329 1034.17 0.151746 
33 0.326604 0.313892 -0.0902351 0 0.0242833 0.0844717 0.000860339 1020.29 0.168479 
37 0.299697 0.284536 -0.0941134 0 0.028864 0.0872654 0.000889549 940.024 0.174704 
41 0.270072 0.25286 -0.0948722 0 0.0332435 0.0886028 0.00194088 870.422 0.176221 
45 0.231264 0.213147 -0.0897284 0 0.0355272 0.084394 -0.000201459 742.636 0.167494 
49 0.244552 0.22147 -0.103715 0 0.0452071 0.0965341 -0.00315659 814.67 0.194734 
53 0.0658777 0.0311334 -0.0580567 0 0.0868322 0.0465646 -0.000876315 378.804 0.0893094 
57 0.00116142 -0.000323127 -0.00111557 0 0.00165798 -0.000480238 -0.000106773 5.07276 0.00101866 
61 0.00022581 -0.000121307 -0.000190459 0 0.000329396 -0.000209799 0.000143481 1.21225 0.000157908 
65 4.22589e-05 -2.27018e-05 -3.56433e-05 0 5.88503e-05 -3.74828e-05 3.10837e-05 0.243204 2.6203e-05 
69 0.000125329 -6.73269e-05 -0.00010571 0 0.000672445 -0.000428282 0.000150523 2.36058 0.000418081 
73 1.75054e-05 -9.40404e-06 -1.47649e-05 0 4.02855e-06 -2.56585e-06 9.35035e-06 0.00240837 -3.53128e-06 
77 6.79075e-05 -3.64799e-05 -5.7277e-05 0 0.000119826 -7.63177e-05 0.00015601 0.39315 5.19212e-05 
81 0 0 0 0 0 0 0 0 0 
85 3.28456e-05 -1.7645e-05 -2.77036e-05 0 0.000118115 -7.52297e-05 -9.00361e-06 0.567751 5.57606e-05 
89 1.31289e-05 -7.053e-06 -1.10735e-05 0 7.65104e-05 -4.87313e-05 -5.4436e-05 0.121619 3.61899e-05 
93 4.37512e-05 -2.35041e-05 -3.69015e-05 0 0.000172142 -0.000109644 9.97526e-05 0.643214 7.23949e-05 
97 0 0 0 0 0 0 0 0 0 
101 8.73577e-05 -4.6929e-05 -7.3682e-05 0 7.93627e-05 -5.05472e-05 -9.26516e-06 0.160218 1.3593e-05 
105 0 0 0 0 0 0 0 0 0 
109 0 0 0 0 0 0 0 0 0 
113 4.42433e-05 -2.37678e-05 -3.7317e-05 0 0.000228701 -0.000145663 2.36762e-05 1.23882 6.50003e-05 
117 0 0 0 0 0 0 0 0 0 
121 0 0 0 0 0 0 0 0 0 
125 0 0 0 0 0 0 0 0 0 
129 0 0 0 0 0 0 0 0 0 
133 0 0 0 0 0 0 0 0 0 
2 0.976408 0.976071 0.0256717 0 0.000256133 -0.0097385 0.00106597 2954.71 0.0226951 
6 0.735216 0.735152 -0.00970733 0 0.000495329 0.0375121 -0.00138385 2191.36 0.0627225 
10 0.492364 0.491679 -0.0259469 0 0.00259023 0.0490833 -0.00104485 1460.69 0.0727789 
14 0.34329 0.341831 -0.0316155 0 0.00393308 0.0425251 0.000607885 1021.71 0.0722994 
18 0.273594 0.271223 -0.0359414 0 0.00522268 0.0394118 -0.000811041 804.534 0.0748419 
22 0.269902 0.265953 -0.0460025 0 0.00765713 0.0442679 -0.00308182 813.124 0.0908488 
26 0.296111 0.289558 -0.0619501 0 0.0118386 0.055334 -5.50926e-05 904.06 0.118425 
30 0.331241 0.32092 -0.0820408 0 0.0192841 0.075434 -0.000751121 1024.8 0.154216 
34 0.324816 0.311272 -0.0928162 0 0.0262054 0.0878836 -0.00101572 1021.62 0.173149 
38 0.284863 0.269556 -0.0921214 0 0.0287533 0.0841348 -0.00192603 886.056 0.170677 
42 0.262106 0.24448 -0.0944928 0 0.034145 0.0883429 0.00239762 841.628 0.17565 
46 0.243452 0.223437 -0.0966707 0 0.0393005 0.0908358 0.00238668 793.9 0.180716 
50 0.214571 0.188517 -0.102481 0 0.0515856 0.0948932 -6.2634e-05 739.463 0.174397 
54 0.0344714 0.0101437 -0.0329451 0 0.0731531 0.0225237 8.59882e-05 277.234 0.0635331 
58 0.000338226 -0.000154834 -0.000300704 0 0.000511437 -0.000263341 -0.000151312 1.51768 0.000270184 
62 0.000207939 -0.000111706 -0.000175386 0 0.000401511 -0.000255729 -9.20326e-05 1.27234 0.000217455 
66 9.00493e-05 -4.83741e-05 -7.59528e-05 0 0.000217045 -0.000138235 5.09318e-05 0.606225 0.000120834 
70 0.000113849 -6.11609e-05 -9.60263e-05 0 0.000128993 -8.21579e-05 -0.000126954 0.293407 4.62887e-05 
74 0 0 0 0 0 0 0 0 0 
78 0.000125105 -6.72094e-05 -0.000105519 0 0.000225778 -0.000143807 5.26297e-05 0.813685 9.74339e-05 
82 0.000145638 -7.82398e-05 -0.000122837 0 0.000192284 -0.000122474 1.24144e-05 0.430496 6.6201e-05 
86 4.25315e-05 -2.28484e-05 -3.58731e-05 0 7.05013e-07 -4.4904e-07 1.34359e-05 -0.0055133 -1.21018e-05 
90 0 0 0 0 0 0 0 0 0 
94 0 0 0 0 0 0 0 0 0 
98 0 0 0 0 0 0 0 0 0 
102 6.3749e-05 -3.42463e-05 -5.37692e-05 0 0.000114013 -7.26165e-05 0.000118554 0.336393 3.2753e-05 
106 2.70509e-05 -1.45319e-05 -2.28161e-05 0 4.5627e-05 -2.90604e-05 1.41401e-06 0.0272149 1.17114e-05 
110 0.000152516 -8.19325e-05 -0.00012864 0 0.00036121 -0.000230059 -0.000250951 1.26549 9.56967e-05 
114 0 0 0 0 0 0 0 0 0 
118 0 0 0 0 0 0 0 0 0 
122 0 0 0 0 0 0 0 0 0 
126 0 0 0 0 0 0 0 0 0 
130 0 0 0 0 0 0 0 0 0 
134 0 0 0 0 0 0 0 0 0 
3 0.923461 0.923336 0.0151653 0 -0.000118857 0.00723662 -0.000362252 2788.33 0.0357721 
7 0.671023 0.670844 -0.0154934 0 0.00101275 0.0438507 -7.85689e-05 2005.04 0.0676993 
11 0.432138 0.431291 -0.0270364 0 0.00280503 0.0447465 0.000705041 1280.57 0.0706384 
15 0.312263 0.310636 -0.0318317 0 0.00446315 0.0435546 -0.000849844 926.945 0.07075 
19 0.263067 0.260433 -0.0371336 0 0.00587561 0.041208 0.0022912 773.863 0.0761883 
23 0.268695 0.264299 -0.048404 0 0.00847696 0.0462866 -0.00242296 797.649 0.0947355 
27 0.319171 0.311432 -0.0698593 0 0.0142356 0.0634621 -6.87545e-06 975.206 0.132895 
31 0.329399 0.318314 -0.0847356 0 0.0213392 0.0801619 0.00144625 1016.34 0.159062 
35 0.309892 0.296081 -0.0914829 0 0.0261795 0.084729 0.00102587 975.265 0.170125 
39 0.285947 0.269655 -0.095143 0 0.0314935 0.089259 -8.35689e-05 912.273 0.17671 
43 0.269161 0.25009 -0.0995123 0 0.0377332 0.0948295 0.000424728 867.841 0.185604 
47 0.233447 0.213327 -0.0948097 0 0.0403564 0.0908042 0.00120423 767.682 0.178088 
51 0.164672 0.12685 -0.105005 0 0.0778048 0.093991 -0.000213081 642.329 0.151141 
55 0.00898102 0.000942631 -0.00893141 0 0.0310578 0.00327787 0.000429229 109.974 0.0245029 
59 0.000169884 -9.12629e-05 -0.000143288 0 0.000211999 -0.000135026 -9.91683e-05 0.663682 9.36707e-05 
63 0.000130832 -7.02829e-05 -0.000110351 0 0.000110564 -7.04185e-05 -1.23443e-05 0.302028 2.98831e-05 
67 0.00012202 -6.55501e-05 -0.000102918 0 0.000224658 -0.000143089 -6.5259e-05 0.689327 0.00011263 
71 7.19944e-05 -3.86766e-05 -6.07233e-05 0 0.00016799 -0.000106998 -4.62032e-05 0.358049 8.71478e-05 
75 9.39309e-05 -5.04608e-05 -7.92257e-05 0 0.000101239 -6.44815e-05 -9.57618e-06 0.203851 3.24955e-05 
79 5.3149e-05 -2.85521e-05 -4.48285e-05 0 8.34565e-05 -5.31549e-05 -1.42511e-05 0.337358 3.32698e-05 
83 5.2075e-06 -2.79746e-06 -4.3923e-06 0 3.41681e-05 -2.17617e-05 -6.1002e-06 0.188011 1.79438e-05 
87 5.89099e-05 -3.16469e-05 -4.96875e-05 0 0.000168567 -0.000107363 1.69856e-05 0.637311 7.36643e-05 
91 4.19708e-05 -2.25471e-05 -3.54002e-05 0 5.43193e-05 -3.45971e-05 -3.65693e-05 0.114632 1.60143e-05 
95 0.000202626 -0.000108852 -0.000170905 0 0.000299227 -0.000190582 -0.000219717 0.456479 8.94885e-05 
99 0.000103891 -5.5811e-05 -8.76274e-05 0 0.000227727 -0.000145042 8.69487e-05 0.701055 7.49704e-05 
103 0.000135564 -7.28256e-05 -0.000114341 0 0.000271033 -0.000172625 0.000132607 0.653324 7.97019e-05 
107 0 0 0 0 0 0 0 0 0 
111 0 0 0 0 0 0 0 0 0 
115 0.000104874 -5.63393e-05 -8.84561e-05 0 0.000205848 -0.000131108 9.20866e-05 0.45204 4.4881e-05 
119 0 0 0 0 0 0 0 0 0 
123 0 0 0 0 0 0 0 0 0 
127 0 0 0 0 0 0 0 0 0 
131 0 0 0 0 0 0 0 0 0 
4 0.885419 0.8854 0.00579267 0 -0.000115601 0.0176695 -0.00308887 2662.73 0.048028 
8 0.604414 0.604085 -0.0199173 0 0.00140509 0.0426162 0.00143701 1802.11 0.0703965 
12 0.408104 0.407033 -0.0295501 0 0.00329523 0.0453896 0.000357172 1194.03 0.0731184 
16 0.293998 0.292156 -0.032858 0 0.00439667 0.0390929 0.000216082 864.927 0.0711574 
20 0.265658 0.262616 -0.0400911 0 0.00633371 0.0414889 -0.00109721 792.733 0.0810689 
24 0.28386 0.278697 -0.0538909 0 0.0101476 0.0524783 -0.00295697 857.665 0.104717 
28 0.326596 0.317957 -0.0746188 0 0.0164871 0.0702528 0.000529514 1006.55 0.141532 
32 0.325244 0.313458 -0.0867646 0 0.0224402 0.0810704 -0.00115097 1007.01 0.162327 
36 0.322591 0.307258 -0.0982713 0 0.0299498 0.0936421 0.00128307 1025.89 0.183001 
40 0.284016 0.266888 -0.0971375 0 0.0340299 0.0934981 0.000163495 906.822 0.180968 
44 0.245434 0.227135 -0.0929916 0 0.034943 0.0853493 -0.000597544 788.681 0.172771 
48 0.22558 0.205225 -0.0936435 0 0.0398284 0.0872861 -0.00109268 737.907 0.175495 
52 0.108875 0.0689482 -0.0842607 0 0.0875423 0.0716334 -0.000875839 491.819 0.117197 
56 0.00219269 -0.000193622 -0.00218412 0 0.00360736 -0.000319791 -8.01472e-05 11.2949 0.00261424 
60 7.54778e-05 -4.05476e-05 -6.36616e-05 0 0.000147658 -9.40471e-05 -1.2307e-05 0.287441 8.21924e-05 
64 0.000436361 -0.000234424 -0.000368044 0 0.000983877 -0.000626677 0.000153979 3.09178 0.000549629 
68 8.66054e-05 -4.65262e-05 -7.30466e-05 0 0.000160458 -0.000102202 4.54904e-05 0.364721 7.96834e-05 
72 3.61541e-05 -1.94222e-05 -3.04942e-05 0 5.14125e-05 -3.27455e-05 -2.12643e-05 0.199708 2.12868e-05 
76 0.000331627 -0.000178153 -0.00027971 0 0.000388976 -0.000247747 0.000257143 1.20388 0.000133122 
80 6.02389e-05 -3.23603e-05 -5.08088e-05 0 7.92212e-05 -5.04562e-05 -5.32314e-05 0.26567 2.79983e-05 
84 2.76856e-05 -1.48729e-05 -2.33514e-05 0 0.000201798 -0.000128529 -5.91349e-05 0.691481 0.00010533 
88 8.19706e-05 -4.40354e-05 -6.9138e-05 0 0.000275531 -0.000175491 -5.82658e-05 1.08597 0.000122581 
92 0 0 0 0 0 0 0 0 0 
96 0 0 0 0 0 0 0 0 0 
100 0 0 0 0 0 0 0 0 0 
104 0 0 0 0 0 0 0 0 0 
108 8.58945e-05 -4.6143e-05 -7.24479e-05 0 0.000197427 -0.000125744 0.000106705 0.649289 5.44087e-05 
112 0.000159617 -8.57472e-05 -0.000134629 0 0.000316328 -0.000201474 6.29065e-05 0.726936 7.50935e-05 
116 0.000124096 -6.66654e-05 -0.000104669 0 0.000244181 -0.000155523 0.000200508 0.513806 5.17807e-05 
120 0 0 0 0 0 0 0 0 0 
124 0 0 0 0 0 0 0 0 0 
128 0 0 0 0 0 0 0 0 0 
132 0 0 0 0 0 0 0 0 0 
