ITEM: TIMESTEP
21000
ITEM: NUMBER OF SURFS
134
ITEM: BOX BOUNDS oo ao pp
-10 10
0 10
-0.5 0.5
ITEM: SURFS id f_avg_pressure[1] f_avg_pressure[2] f_avg_pressure[3] f_avg_pressure[4] f_avg_shear[1] f_avg_shear[2] f_avg_shear[3] f_avg_heat_flux[*] f_avg_fdrag[*] 
1 0.948299 0.947678 0.0343036 0 0.00074703 -0.0206376 -0.00141131 2879.4 0.0073481 
5 0.847191 0.847186 -0.00281392 0 8.83317e-05 0.026594 -0.00132139 2544.61 0.0591032 
9 0.519685 0.519208 -0.0222628 0 0.001979 0.0461538 -0.00185997 1541.54 0.0686704 
13 0.353797 0.352597 -0.0291075 0 0.00374504 0.0453661 -0.000954381 1041.6 0.0690072 
17 0.288334 0.286195 -0.0350516 0 0.0052791 0.0431037 4.26714e-05 855.545 0.0744275 
21 0.278189 0.274574 -0.0446987 0 0.00682619 0.0419317 0.00152849 834.704 0.0891327 
25 0.288482 0.28268 -0.0575661 0 0.0103289 0.0507202 0.00252298 868.188 0.110684 
29 0.335168 0.325529 -0.0798048 0 0.0175318 0.0715135 0.00255107 1021.78 0.15035 
33 0.326277 0.313577 -0.0901446 0 0.0244234 0.0849592 0.000541755 1021.55 0.168392 
37 0.300958 0.285733 -0.0945093 0 0.0288541 0.0872355 0.000602901 944.432 0.175366 
41 0.269287 0.252125 -0.0945964 0 0.0335346 0.0893787 0.00199531 873.244 0.175947 
45 0.232896 0.214651 -0.0903615 0 0.0357454 0.0849124 -0.000464514 746.182 0.168654 
49 0.246994 0.223681 -0.10475 0 0.0458323 0.0978691 -0.00280304 822.064 0.196805 
53 0.0658893 0.0311389 -0.0580669 0 0.0874001 0.0468691 -0.000561065 381.556 0.0897434 
57 0.00118473 -0.00032961 -0.00113795 0 0.00165197 -0.000478496 -3.44344e-05 5.20032 0.00100912 
61 0.000282262 -0.000151634 -0.000238074 0 0.000411746 -0.000262248 0.000179352 1.51531 0.000197385 
65 2.41078e-05 -1.29509e-05 -2.03337e-05 0 4.3236e-05 -2.75378e-05 3.23728e-05 0.204322 2.19527e-05 
69 0.000156662 -8.41586e-05 -0.000132137 0 0.000840556 -0.000535353 0.000188153 2.95072 0.000522601 
73 0 0 0 0 0 0 0 0 0 
77 8.48844e-05 -4.55998e-05 -7.15962e-05 0 0.000149783 -9.53971e-05 0.000195012 0.491438 6.49015e-05 
81 0 0 0 0 0 0 0 0 0 
85 4.1057e-05 -2.20562e-05 -3.46295e-05 0 0.000147643 -9.40371e-05 -1.12545e-05 0.709688 6.97007e-05 
89 1.64111e-05 -8.81625e-06 -1.38419e-05 0 9.5638e-05 -6.09142e-05 -6.8045e-05 0.152024 4.52373e-05 
93 5.46889e-05 -2.93801e-05 -4.61269e-05 0 0.000215178 -0.000137056 0.000124691 0.804018 9.04937e-05 
97 0 0 0 0 0 0 0 0 0 
101 4.66459e-05 -2.50584e-05 -3.93435e-05 0 1.7522e-05 -1.116e-05 2.43642e-05 -0.00724374 -3.15851e-06 
105 0 0 0 0 0 0 0 0 0 
109 0 0 0 0 0 0 0 0 0 
113 0 0 0 0 0 0 0 0 0 
117 0 0 0 0 0 0 0 0 0 
121 0 0 0 0 0 0 0 0 0 
125 0 0 0 0 0 0 0 0 0 
129 0 0 0 0 0 0 0 0 0 
133 0 0 0 0 0 0 0 0 0 
2 0.953255 0.952926 0.025063 0 0.000225183 -0.00856174 0.0011436 2883.35 0.0221564 
6 0.729534 0.72947 -0.0096323 0 0.000486003 0.0368058 -0.000174016 2167.84 0.0622372 
10 0.496415 0.495725 -0.0261604 0 0.00262104 0.0496672 -0.000662314 1472.21 0.0733792 
14 0.346594 0.345121 -0.0319198 0 0.00397081 0.042933 0.000202281 1033.62 0.0729951 
18 0.277702 0.275296 -0.036481 0 0.00517996 0.0390894 -0.00126735 816.988 0.0759329 
22 0.270714 0.266753 -0.0461409 0 0.00778872 0.0450287 -0.00282763 817.221 0.0911581 
26 0.293747 0.287246 -0.0614556 0 0.0119052 0.0556454 0.000325532 894.937 0.117543 
30 0.334919 0.324484 -0.0829517 0 0.0195489 0.0764697 -0.00094216 1040.42 0.155951 
34 0.321259 0.307864 -0.0917999 0 0.0262016 0.0878706 -0.00103862 1011.46 0.171398 
38 0.279753 0.264721 -0.0904691 0 0.0280414 0.0820518 -0.00118912 868.963 0.167504 
42 0.260756 0.243221 -0.094006 0 0.0338008 0.0874525 0.00321396 842.249 0.174639 
46 0.239346 0.219668 -0.0950402 0 0.0389973 0.090135 0.00355191 781.272 0.177915 
50 0.217514 0.191102 -0.103886 0 0.0519166 0.095502 -0.000327106 753.158 0.176515 
54 0.036248 0.0106665 -0.0346431 0 0.0769751 0.0237004 -0.000442938 292.726 0.066847 
58 0.000380656 -0.000174258 -0.000338428 0 0.000563214 -0.000290001 -0.00012062 1.67682 0.000294697 
62 0.000241471 -0.00012972 -0.000203669 0 0.0004471 -0.000284765 -9.20167e-05 1.38941 0.000238147 
66 9.0632e-05 -4.86872e-05 -7.64443e-05 0 0.000208057 -0.000132511 7.9859e-05 0.575524 0.000114171 
70 0.000142312 -7.64511e-05 -0.000120033 0 0.000161241 -0.000102697 -0.000158693 0.366758 5.78609e-05 
74 0 0 0 0 0 0 0 0 0 
78 8.62557e-05 -4.63385e-05 -7.27515e-05 0 0.000172163 -0.000109658 -6.19678e-05 0.624802 7.73144e-05 
82 0.000182047 -9.77997e-05 -0.000153546 0 0.000240355 -0.000153092 1.5518e-05 0.53812 8.27512e-05 
86 5.31644e-05 -2.85606e-05 -4.48414e-05 0 8.81267e-07 -5.613e-07 1.67949e-05 -0.00689162 -1.51272e-05 
90 0 0 0 0 0 0 0 0 0 
94 0 0 0 0 0 0 0 0 0 
98 0 0 0 0 0 0 0 0 0 
102 7.96863e-05 -4.28079e-05 -6.72115e-05 0 0.000142517 -9.07706e-05 0.000148193 0.420491 4.09412e-05 
106 3.38136e-05 -1.81648e-05 -2.85201e-05 0 5.70337e-05 -3.63255e-05 1.76751e-06 0.0340186 1.46393e-05 
110 0.000190646 -0.000102416 -0.0001608 0 0.000451513 -0.000287573 -0.000313689 1.58187 0.000119621 
114 0 0 0 0 0 0 0 0 0 
118 0 0 0 0 0 0 0 0 0 
122 0 0 0 0 0 0 0 0 0 
126 0 0 0 0 0 0 0 0 0 
130 0 0 0 0 0 0 0 0 0 
134 0 0 0 0 0 0 0 0 0 
3 0.921079 0.920955 0.0151261 0 -8.39587e-05 0.00511183 -0.00119618 2783.44 0.0356811 
7 0.675054 0.674874 -0.0155865 0 0.00100545 0.0435346 0.00029391 2012.65 0.0681046 
11 0.42896 0.42812 -0.0268376 0 0.00276054 0.0440367 0.00180134 1268.84 0.0701151 
15 0.314343 0.312705 -0.0320438 0 0.00449062 0.0438226 -0.00095859 932.517 0.0712208 
19 0.264202 0.261557 -0.0372938 0 0.00605082 0.0424368 0.00385835 780.728 0.07656 
23 0.265314 0.260974 -0.047795 0 0.00836292 0.0456638 -0.00327053 785.88 0.093541 
27 0.32291 0.31508 -0.0706777 0 0.0143539 0.0639894 -0.000427528 989.247 0.134432 
31 0.334375 0.323122 -0.0860156 0 0.0217575 0.0817334 0.00198418 1033.78 0.161509 
35 0.315979 0.301897 -0.0932799 0 0.026663 0.0862936 0.00153504 998.203 0.173451 
39 0.282129 0.266054 -0.0938726 0 0.0311267 0.0882193 -0.0014862 904.899 0.174382 
43 0.259932 0.241515 -0.0961002 0 0.0365783 0.0919271 -0.000553154 837.565 0.17933 
47 0.230107 0.210276 -0.0934535 0 0.0396809 0.0892844 0.00202427 761.701 0.175471 
51 0.169771 0.130777 -0.108256 0 0.0802289 0.0969194 -0.000574436 664.213 0.155831 
55 0.00922768 0.000968521 -0.00917671 0 0.031928 0.00336972 0.000371902 113.29 0.025189 
59 0.000147994 -7.95034e-05 -0.000124825 0 0.000185548 -0.000118179 -7.25797e-05 0.59979 8.22727e-05 
63 0.00016354 -8.78536e-05 -0.000137938 0 0.000138205 -8.80231e-05 -1.54304e-05 0.377535 3.73539e-05 
67 0.000152525 -8.19376e-05 -0.000128647 0 0.000280823 -0.000178861 -8.15738e-05 0.861659 0.000140788 
71 8.9993e-05 -4.83458e-05 -7.59041e-05 0 0.000209987 -0.000133748 -5.7754e-05 0.447561 0.000108935 
75 0.000117414 -6.3076e-05 -9.90322e-05 0 0.000126549 -8.06019e-05 -1.19702e-05 0.254814 4.06194e-05 
79 6.64363e-05 -3.56901e-05 -5.60356e-05 0 0.000104321 -6.64437e-05 -1.78139e-05 0.421697 4.15873e-05 
83 6.50938e-06 -3.49683e-06 -5.49037e-06 0 4.27101e-05 -2.72021e-05 -7.62524e-06 0.235014 2.24298e-05 
87 7.36374e-05 -3.95586e-05 -6.21094e-05 0 0.000210708 -0.000134204 2.1232e-05 0.796639 9.20804e-05 
91 5.24635e-05 -2.81839e-05 -4.42503e-05 0 6.78991e-05 -4.32463e-05 -4.57116e-05 0.143291 2.00179e-05 
95 0.000253283 -0.000136065 -0.000213632 0 0.000374034 -0.000238227 -0.000274646 0.570599 0.000111861 
99 0.000129864 -6.97638e-05 -0.000109534 0 0.000284658 -0.000181303 0.000108686 0.876319 9.37131e-05 
103 0.000169455 -9.1032e-05 -0.000142927 0 0.000338791 -0.000215781 0.000165758 0.816656 9.96274e-05 
107 0 0 0 0 0 0 0 0 0 
111 0 0 0 0 0 0 0 0 0 
115 0.000131093 -7.04241e-05 -0.00011057 0 0.00025731 -0.000163885 0.000115108 0.56505 5.61013e-05 
119 0 0 0 0 0 0 0 0 0 
123 0 0 0 0 0 0 0 0 0 
127 0 0 0 0 0 0 0 0 0 
131 0 0 0 0 0 0 0 0 0 
4 0.890642 0.890623 0.00582684 0 -0.000110492 0.0168885 -0.00263698 2677.22 0.0483117 
8 0.609487 0.609156 -0.0200845 0 0.00140034 0.0424719 0.00212032 1818.45 0.0709855 
12 0.408024 0.406953 -0.0295443 0 0.00332059 0.0457389 7.26038e-05 1191.7 0.0731086 
16 0.294562 0.292716 -0.032921 0 0.00434014 0.0385903 -0.000316802 865.974 0.0712783 
20 0.27021 0.267115 -0.0407779 0 0.00649011 0.0425134 -0.0013709 806.599 0.0824723 
24 0.286411 0.281202 -0.0543752 0 0.0101585 0.0525347 -0.00322302 867.21 0.105629 
28 0.326305 0.317674 -0.0745524 0 0.0164892 0.0702619 -0.0003548 1003.43 0.141413 
32 0.324177 0.312429 -0.0864798 0 0.0223452 0.0807273 -0.00140111 1003.96 0.161784 
36 0.317671 0.302572 -0.0967725 0 0.0296393 0.0926712 0.00154169 1009.88 0.180289 
40 0.282336 0.26531 -0.0965631 0 0.033956 0.0932951 -9.50641e-05 900.078 0.179974 
44 0.248434 0.229912 -0.0941283 0 0.0353438 0.0863283 0.000113658 799.721 0.174865 
48 0.226974 0.206493 -0.094222 0 0.0403471 0.0884229 -0.000921535 743.473 0.176775 
52 0.107116 0.0678346 -0.0828998 0 0.0862686 0.0705911 -0.00194151 484.105 0.115409 
56 0.00235136 -0.000207633 -0.00234218 0 0.00376889 -0.00033411 -8.80213e-05 11.9169 0.00272721 
60 7.94894e-05 -4.27026e-05 -6.70451e-05 0 0.000180452 -0.000114934 -3.15028e-05 0.335694 0.000105703 
64 0.00053771 -0.000288872 -0.000453526 0 0.00118008 -0.000751647 0.000189087 3.63572 0.000653588 
68 8.59514e-06 -4.61749e-06 -7.24949e-06 0 2.54889e-05 -1.62349e-05 -5.87372e-06 0.0358915 1.45974e-05 
72 4.51926e-05 -2.42778e-05 -3.81177e-05 0 6.42657e-05 -4.09318e-05 -2.65803e-05 0.249635 2.66085e-05 
76 0.000366581 -0.000196931 -0.000309192 0 0.000479738 -0.000305555 0.000290889 1.45692 0.000178576 
80 0 0 0 0 0 0 0 0 0 
84 3.4607e-05 -1.85912e-05 -2.91892e-05 0 0.000252247 -0.000160661 -7.39186e-05 0.864351 0.000131663 
88 2.85742e-05 -1.53503e-05 -2.41008e-05 0 0.000148086 -9.43192e-05 -7.51827e-05 0.669351 7.0286e-05 
92 0 0 0 0 0 0 0 0 0 
96 0 0 0 0 0 0 0 0 0 
100 0 0 0 0 0 0 0 0 0 
104 0 0 0 0 0 0 0 0 0 
108 0.000107368 -5.76788e-05 -9.05598e-05 0 0.000246784 -0.00015718 0.000133382 0.811611 6.80108e-05 
112 0.000199521 -0.000107184 -0.000168287 0 0.000395411 -0.000251842 7.86332e-05 0.90867 9.38669e-05 
116 0.00015512 -8.33317e-05 -0.000130836 0 0.000305226 -0.000194404 0.000250635 0.642257 6.47259e-05 
120 0 0 0 0 0 0 0 0 0 
124 0 0 0 0 0 0 0 0 0 
128 0 0 0 0 0 0 0 0 0 
132 0 0 0 0 0 0 0 0 0 
